<?xml version="1.0" encoding="UTF-8"?>

<!-- generated on 2024-05-10 16:11:44 by Eclipse SUMO GUI Version 1.20.0
<configuration xmlns:xsi="http://www.w3.org/2001/XMLSchema-instance" xsi:noNamespaceSchemaLocation="http://sumo.dlr.de/xsd/sumoConfiguration.xsd">

    <input>
        <net-file value="data/cross.net.xml"/>
        <route-files value="data/cross.rou.xml"/>
        <additional-files value="data/cross.det.xml"/>
    </input>

    <output>
        <tripinfo-output value="tripinfo.xml"/>
    </output>

    <time>
        <begin value="0"/>
    </time>

    <report>
        <verbose value="true"/>
        <no-step-log value="true"/>
    </report>

    <traci_server>
        <remote-port value="63513"/>
    </traci_server>

</configuration>
-->

<tripinfos xmlns:xsi="http://www.w3.org/2001/XMLSchema-instance" xsi:noNamespaceSchemaLocation="http://sumo.dlr.de/xsd/tripinfo_file.xsd">
    <tripinfo id="left_0" depart="7.00" departLane="52o_0" departPos="5.10" departSpeed="0.00" departDelay="0.00" arrival="95.00" arrivalLane="51i_0" arrivalPos="10.00" arrivalSpeed="12.12" duration="88.00" routeLength="1015.10" waitingTime="0.00" waitingCount="0" stopTime="0.00" timeLoss="14.45" rerouteNo="0" devices="tripinfo_left_0" vType="typeWE" speedFactor="1.06" vaporized=""/>
    <tripinfo id="left_1" depart="12.00" departLane="52o_0" departPos="5.10" departSpeed="0.00" departDelay="1.00" arrival="106.00" arrivalLane="51i_0" arrivalPos="10.00" arrivalSpeed="10.70" duration="94.00" routeLength="1015.10" waitingTime="0.00" waitingCount="0" stopTime="0.00" timeLoss="14.92" rerouteNo="0" devices="tripinfo_left_1" vType="typeWE" speedFactor="0.94" vaporized=""/>
    <tripinfo id="right_2" depart="16.00" departLane="51o_0" departPos="5.10" departSpeed="0.00" departDelay="0.00" arrival="107.00" arrivalLane="52i_0" arrivalPos="10.00" arrivalSpeed="11.30" duration="91.00" routeLength="1015.10" waitingTime="0.00" waitingCount="0" stopTime="0.00" timeLoss="14.99" rerouteNo="0" devices="tripinfo_right_2" vType="typeWE" speedFactor="1.01" vaporized=""/>
    <tripinfo id="right_3" depart="21.00" departLane="51o_0" departPos="5.10" departSpeed="0.00" departDelay="1.00" arrival="108.00" arrivalLane="52i_0" arrivalPos="10.00" arrivalSpeed="11.88" duration="87.00" routeLength="1015.10" waitingTime="0.00" waitingCount="0" stopTime="0.00" timeLoss="14.54" rerouteNo="0" devices="tripinfo_right_3" vType="typeWE" speedFactor="1.08" vaporized=""/>
    <tripinfo id="left_4" depart="31.00" departLane="52o_0" departPos="5.10" departSpeed="0.00" departDelay="0.00" arrival="120.00" arrivalLane="51i_0" arrivalPos="10.00" arrivalSpeed="11.78" duration="89.00" routeLength="1015.10" waitingTime="0.00" waitingCount="0" stopTime="0.00" timeLoss="14.57" rerouteNo="0" devices="tripinfo_left_4" vType="typeWE" speedFactor="1.03" vaporized=""/>
    <tripinfo id="down_6" depart="37.00" departLane="54o_0" departPos="7.10" departSpeed="0.00" departDelay="0.00" arrival="138.00" arrivalLane="53i_0" arrivalPos="10.00" arrivalSpeed="12.10" duration="101.00" routeLength="1013.10" waitingTime="3.00" waitingCount="1" stopTime="0.00" timeLoss="32.48" rerouteNo="0" devices="tripinfo_down_6" vType="typeNS" speedFactor="1.05" vaporized=""/>
    <tripinfo id="right_7" depart="50.00" departLane="51o_0" departPos="5.10" departSpeed="0.00" departDelay="0.00" arrival="182.00" arrivalLane="52i_0" arrivalPos="10.00" arrivalSpeed="10.00" duration="132.00" routeLength="1015.10" waitingTime="25.00" waitingCount="1" stopTime="0.00" timeLoss="49.90" rerouteNo="0" devices="tripinfo_right_7" vType="typeWE" speedFactor="0.89" vaporized=""/>
    <tripinfo id="left_5" depart="36.00" departLane="52o_0" departPos="5.10" departSpeed="0.00" departDelay="4.00" arrival="185.00" arrivalLane="51i_0" arrivalPos="10.00" arrivalSpeed="9.61" duration="149.00" routeLength="1015.10" waitingTime="38.00" waitingCount="1" stopTime="0.00" timeLoss="63.12" rerouteNo="0" devices="tripinfo_left_5" vType="typeWE" speedFactor="0.83" vaporized=""/>
    <tripinfo id="left_8" depart="51.00" departLane="52o_0" departPos="5.10" departSpeed="0.00" departDelay="0.00" arrival="187.00" arrivalLane="51i_0" arrivalPos="10.00" arrivalSpeed="9.79" duration="136.00" routeLength="1015.10" waitingTime="25.00" waitingCount="1" stopTime="0.00" timeLoss="57.17" rerouteNo="0" devices="tripinfo_left_8" vType="typeWE" speedFactor="0.94" vaporized=""/>
    <tripinfo id="right_9" depart="56.00" departLane="51o_0" departPos="5.10" departSpeed="0.00" departDelay="0.00" arrival="187.00" arrivalLane="52i_0" arrivalPos="10.00" arrivalSpeed="9.79" duration="131.00" routeLength="1015.10" waitingTime="20.00" waitingCount="1" stopTime="0.00" timeLoss="47.12" rerouteNo="0" devices="tripinfo_right_9" vType="typeWE" speedFactor="0.86" vaporized=""/>
    <tripinfo id="right_10" depart="61.00" departLane="51o_0" departPos="5.10" departSpeed="0.00" departDelay="4.00" arrival="189.00" arrivalLane="52i_0" arrivalPos="10.00" arrivalSpeed="10.90" duration="128.00" routeLength="1015.10" waitingTime="17.00" waitingCount="1" stopTime="0.00" timeLoss="55.26" rerouteNo="0" devices="tripinfo_right_10" vType="typeWE" speedFactor="1.09" vaporized=""/>
    <tripinfo id="left_12" depart="66.00" departLane="52o_0" departPos="5.10" departSpeed="0.00" departDelay="0.00" arrival="189.00" arrivalLane="51i_0" arrivalPos="10.00" arrivalSpeed="10.12" duration="123.00" routeLength="1015.10" waitingTime="11.00" waitingCount="1" stopTime="0.00" timeLoss="49.06" rerouteNo="0" devices="tripinfo_left_12" vType="typeWE" speedFactor="1.05" vaporized=""/>
    <tripinfo id="right_11" depart="66.00" departLane="51o_0" departPos="5.10" departSpeed="0.00" departDelay="2.00" arrival="190.00" arrivalLane="52i_0" arrivalPos="10.00" arrivalSpeed="10.66" duration="124.00" routeLength="1015.10" waitingTime="12.00" waitingCount="1" stopTime="0.00" timeLoss="49.43" rerouteNo="0" devices="tripinfo_right_11" vType="typeWE" speedFactor="1.03" vaporized=""/>
    <tripinfo id="left_13" depart="71.00" departLane="52o_0" departPos="5.10" departSpeed="0.00" departDelay="3.00" arrival="191.00" arrivalLane="51i_0" arrivalPos="10.00" arrivalSpeed="11.03" duration="120.00" routeLength="1015.10" waitingTime="8.00" waitingCount="1" stopTime="0.00" timeLoss="48.68" rerouteNo="0" devices="tripinfo_left_13" vType="typeWE" speedFactor="1.12" vaporized=""/>
    <tripinfo id="down_15" depart="94.00" departLane="54o_0" departPos="7.10" departSpeed="0.00" departDelay="0.00" arrival="200.00" arrivalLane="53i_0" arrivalPos="10.00" arrivalSpeed="10.82" duration="106.00" routeLength="1013.10" waitingTime="2.00" waitingCount="1" stopTime="0.00" timeLoss="28.63" rerouteNo="0" devices="tripinfo_down_15" vType="typeNS" speedFactor="0.93" vaporized=""/>
    <tripinfo id="right_14" depart="84.00" departLane="51o_0" departPos="5.10" departSpeed="0.00" departDelay="0.00" arrival="235.00" arrivalLane="52i_0" arrivalPos="10.00" arrivalSpeed="11.36" duration="151.00" routeLength="1015.10" waitingTime="40.00" waitingCount="1" stopTime="0.00" timeLoss="74.24" rerouteNo="0" devices="tripinfo_right_14" vType="typeWE" speedFactor="0.99" vaporized=""/>
    <tripinfo id="right_17" depart="109.00" departLane="51o_0" departPos="5.10" departSpeed="0.00" departDelay="0.00" arrival="239.00" arrivalLane="52i_0" arrivalPos="10.00" arrivalSpeed="10.61" duration="130.00" routeLength="1015.10" waitingTime="23.00" waitingCount="1" stopTime="0.00" timeLoss="51.11" rerouteNo="0" devices="tripinfo_right_17" vType="typeWE" speedFactor="0.94" vaporized=""/>
    <tripinfo id="left_16" depart="104.00" departLane="52o_0" departPos="5.10" departSpeed="0.00" departDelay="0.00" arrival="240.00" arrivalLane="51i_0" arrivalPos="10.00" arrivalSpeed="10.32" duration="136.00" routeLength="1015.10" waitingTime="27.00" waitingCount="1" stopTime="0.00" timeLoss="53.62" rerouteNo="0" devices="tripinfo_left_16" vType="typeWE" speedFactor="0.88" vaporized=""/>
    <tripinfo id="right_19" depart="129.00" departLane="51o_0" departPos="5.10" departSpeed="0.00" departDelay="0.00" arrival="241.00" arrivalLane="52i_0" arrivalPos="10.00" arrivalSpeed="11.56" duration="112.00" routeLength="1015.10" waitingTime="6.00" waitingCount="1" stopTime="0.00" timeLoss="41.70" rerouteNo="0" devices="tripinfo_right_19" vType="typeWE" speedFactor="1.16" vaporized=""/>
    <tripinfo id="left_18" depart="111.00" departLane="52o_0" departPos="5.10" departSpeed="0.00" departDelay="0.00" arrival="242.00" arrivalLane="51i_0" arrivalPos="10.00" arrivalSpeed="10.84" duration="131.00" routeLength="1015.10" waitingTime="21.00" waitingCount="1" stopTime="0.00" timeLoss="51.42" rerouteNo="0" devices="tripinfo_left_18" vType="typeWE" speedFactor="0.94" vaporized=""/>
    <tripinfo id="right_20" depart="135.00" departLane="51o_0" departPos="5.10" departSpeed="0.00" departDelay="0.00" arrival="242.00" arrivalLane="52i_0" arrivalPos="10.00" arrivalSpeed="10.93" duration="107.00" routeLength="1015.10" waitingTime="1.00" waitingCount="1" stopTime="0.00" timeLoss="31.90" rerouteNo="0" devices="tripinfo_right_20" vType="typeWE" speedFactor="1.02" vaporized=""/>
    <tripinfo id="left_21" depart="136.00" departLane="52o_0" departPos="5.10" departSpeed="0.00" departDelay="0.00" arrival="243.00" arrivalLane="51i_0" arrivalPos="10.00" arrivalSpeed="10.71" duration="107.00" routeLength="1015.10" waitingTime="0.00" waitingCount="0" stopTime="0.00" timeLoss="31.69" rerouteNo="0" devices="tripinfo_left_21" vType="typeWE" speedFactor="1.01" vaporized=""/>
    <tripinfo id="left_22" depart="142.00" departLane="52o_0" departPos="5.10" departSpeed="0.00" departDelay="1.00" arrival="245.00" arrivalLane="51i_0" arrivalPos="10.00" arrivalSpeed="11.12" duration="103.00" routeLength="1015.10" waitingTime="0.00" waitingCount="0" stopTime="0.00" timeLoss="25.86" rerouteNo="0" devices="tripinfo_left_22" vType="typeWE" speedFactor="0.97" vaporized=""/>
    <tripinfo id="right_23" depart="143.00" departLane="51o_0" departPos="5.10" departSpeed="0.00" departDelay="0.00" arrival="248.00" arrivalLane="52i_0" arrivalPos="10.00" arrivalSpeed="10.34" duration="105.00" routeLength="1015.10" waitingTime="0.00" waitingCount="0" stopTime="0.00" timeLoss="22.73" rerouteNo="0" devices="tripinfo_right_23" vType="typeWE" speedFactor="0.89" vaporized=""/>
    <tripinfo id="right_25" depart="148.00" departLane="51o_0" departPos="5.10" departSpeed="0.00" departDelay="2.00" arrival="250.00" arrivalLane="52i_0" arrivalPos="10.00" arrivalSpeed="9.88" duration="102.00" routeLength="1015.10" waitingTime="0.00" waitingCount="0" stopTime="0.00" timeLoss="19.46" rerouteNo="0" devices="tripinfo_right_25" vType="typeWE" speedFactor="0.87" vaporized=""/>
    <tripinfo id="left_24" depart="147.00" departLane="52o_0" departPos="5.10" departSpeed="0.00" departDelay="2.00" arrival="251.00" arrivalLane="51i_0" arrivalPos="10.00" arrivalSpeed="9.50" duration="104.00" routeLength="1015.10" waitingTime="0.00" waitingCount="0" stopTime="0.00" timeLoss="16.76" rerouteNo="0" devices="tripinfo_left_24" vType="typeWE" speedFactor="0.83" vaporized=""/>
    <tripinfo id="down_27" depart="155.00" departLane="54o_0" departPos="7.10" departSpeed="0.00" departDelay="0.00" arrival="260.00" arrivalLane="53i_0" arrivalPos="10.00" arrivalSpeed="10.63" duration="105.00" routeLength="1013.10" waitingTime="1.00" waitingCount="1" stopTime="0.00" timeLoss="29.25" rerouteNo="0" devices="tripinfo_down_27" vType="typeNS" speedFactor="0.95" vaporized=""/>
    <tripinfo id="down_29" depart="161.00" departLane="54o_0" departPos="7.10" departSpeed="0.00" departDelay="1.00" arrival="262.00" arrivalLane="53i_0" arrivalPos="10.00" arrivalSpeed="10.76" duration="101.00" routeLength="1013.10" waitingTime="0.00" waitingCount="0" stopTime="0.00" timeLoss="24.56" rerouteNo="0" devices="tripinfo_down_29" vType="typeNS" speedFactor="0.93" vaporized=""/>
    <tripinfo id="down_35" depart="179.00" departLane="54o_0" departPos="7.10" departSpeed="0.00" departDelay="0.00" arrival="267.00" arrivalLane="53i_0" arrivalPos="10.00" arrivalSpeed="11.64" duration="88.00" routeLength="1013.10" waitingTime="0.00" waitingCount="0" stopTime="0.00" timeLoss="17.82" rerouteNo="0" devices="tripinfo_down_35" vType="typeNS" speedFactor="1.02" vaporized=""/>
    <tripinfo id="left_31" depart="163.00" departLane="52o_0" departPos="5.10" departSpeed="0.00" departDelay="0.00" arrival="289.00" arrivalLane="51i_0" arrivalPos="10.00" arrivalSpeed="12.75" duration="126.00" routeLength="1015.10" waitingTime="30.00" waitingCount="1" stopTime="0.00" timeLoss="55.99" rerouteNo="0" devices="tripinfo_left_31" vType="typeWE" speedFactor="1.15" vaporized=""/>
    <tripinfo id="left_33" depart="169.00" departLane="52o_0" departPos="5.10" departSpeed="0.00" departDelay="0.00" arrival="293.00" arrivalLane="51i_0" arrivalPos="10.00" arrivalSpeed="13.33" duration="124.00" routeLength="1015.10" waitingTime="24.00" waitingCount="1" stopTime="0.00" timeLoss="54.10" rerouteNo="0" devices="tripinfo_left_33" vType="typeWE" speedFactor="1.17" vaporized=""/>
    <tripinfo id="right_26" depart="153.00" departLane="51o_0" departPos="5.10" departSpeed="0.00" departDelay="5.00" arrival="298.00" arrivalLane="52i_0" arrivalPos="10.00" arrivalSpeed="10.63" duration="145.00" routeLength="1015.10" waitingTime="38.00" waitingCount="1" stopTime="0.00" timeLoss="65.25" rerouteNo="0" devices="tripinfo_right_26" vType="typeWE" speedFactor="0.92" vaporized=""/>
    <tripinfo id="right_28" depart="158.00" departLane="51o_0" departPos="5.10" departSpeed="0.00" departDelay="2.00" arrival="300.00" arrivalLane="52i_0" arrivalPos="10.00" arrivalSpeed="11.42" duration="142.00" routeLength="1015.10" waitingTime="35.00" waitingCount="2" stopTime="0.00" timeLoss="71.22" rerouteNo="0" devices="tripinfo_right_28" vType="typeWE" speedFactor="1.13" vaporized=""/>
    <tripinfo id="left_34" depart="174.00" departLane="52o_0" departPos="5.10" departSpeed="0.00" departDelay="2.00" arrival="300.00" arrivalLane="51i_0" arrivalPos="10.00" arrivalSpeed="11.36" duration="126.00" routeLength="1015.10" waitingTime="21.00" waitingCount="1" stopTime="0.00" timeLoss="49.65" rerouteNo="0" devices="tripinfo_left_34" vType="typeWE" speedFactor="0.99" vaporized=""/>
    <tripinfo id="right_30" depart="164.00" departLane="51o_0" departPos="5.10" departSpeed="0.00" departDelay="3.00" arrival="302.00" arrivalLane="52i_0" arrivalPos="10.00" arrivalSpeed="12.10" duration="138.00" routeLength="1015.10" waitingTime="32.00" waitingCount="1" stopTime="0.00" timeLoss="68.48" rerouteNo="0" devices="tripinfo_right_30" vType="typeWE" speedFactor="1.18" vaporized=""/>
    <tripinfo id="left_36" depart="182.00" departLane="52o_0" departPos="5.10" departSpeed="0.00" departDelay="2.00" arrival="303.00" arrivalLane="51i_0" arrivalPos="10.00" arrivalSpeed="10.95" duration="121.00" routeLength="1015.10" waitingTime="13.00" waitingCount="1" stopTime="0.00" timeLoss="43.48" rerouteNo="0" devices="tripinfo_left_36" vType="typeWE" speedFactor="0.97" vaporized=""/>
    <tripinfo id="right_32" depart="169.00" departLane="51o_0" departPos="5.10" departSpeed="0.00" departDelay="0.00" arrival="304.00" arrivalLane="52i_0" arrivalPos="10.00" arrivalSpeed="11.75" duration="135.00" routeLength="1015.10" waitingTime="27.00" waitingCount="1" stopTime="0.00" timeLoss="58.68" rerouteNo="0" devices="tripinfo_right_32" vType="typeWE" speedFactor="1.01" vaporized=""/>
    <tripinfo id="left_38" depart="197.00" departLane="52o_0" departPos="5.10" departSpeed="0.00" departDelay="0.00" arrival="304.00" arrivalLane="51i_0" arrivalPos="10.00" arrivalSpeed="10.98" duration="107.00" routeLength="1015.10" waitingTime="1.00" waitingCount="1" stopTime="0.00" timeLoss="35.22" rerouteNo="0" devices="tripinfo_left_38" vType="typeWE" speedFactor="1.10" vaporized=""/>
    <tripinfo id="right_37" depart="194.00" departLane="51o_0" departPos="5.10" departSpeed="0.00" departDelay="0.00" arrival="305.00" arrivalLane="52i_0" arrivalPos="10.00" arrivalSpeed="11.68" duration="111.00" routeLength="1015.10" waitingTime="4.00" waitingCount="1" stopTime="0.00" timeLoss="41.91" rerouteNo="0" devices="tripinfo_right_37" vType="typeWE" speedFactor="1.18" vaporized=""/>
    <tripinfo id="right_40" depart="209.00" departLane="51o_0" departPos="5.10" departSpeed="0.00" departDelay="0.00" arrival="307.00" arrivalLane="52i_0" arrivalPos="10.00" arrivalSpeed="11.89" duration="98.00" routeLength="1015.10" waitingTime="0.00" waitingCount="0" stopTime="0.00" timeLoss="23.15" rerouteNo="0" devices="tripinfo_right_40" vType="typeWE" speedFactor="1.03" vaporized=""/>
    <tripinfo id="left_39" depart="208.00" departLane="52o_0" departPos="5.10" departSpeed="0.00" departDelay="0.00" arrival="310.00" arrivalLane="51i_0" arrivalPos="10.00" arrivalSpeed="10.43" duration="102.00" routeLength="1015.10" waitingTime="0.00" waitingCount="0" stopTime="0.00" timeLoss="20.76" rerouteNo="0" devices="tripinfo_left_39" vType="typeWE" speedFactor="0.90" vaporized=""/>
    <tripinfo id="left_41" depart="215.00" departLane="52o_0" departPos="5.10" departSpeed="0.00" departDelay="0.00" arrival="312.00" arrivalLane="51i_0" arrivalPos="10.00" arrivalSpeed="10.66" duration="97.00" routeLength="1015.10" waitingTime="0.00" waitingCount="0" stopTime="0.00" timeLoss="18.63" rerouteNo="0" devices="tripinfo_left_41" vType="typeWE" speedFactor="0.96" vaporized=""/>
    <tripinfo id="down_43" depart="227.00" departLane="54o_0" departPos="7.10" departSpeed="0.00" departDelay="0.00" arrival="328.00" arrivalLane="53i_0" arrivalPos="10.00" arrivalSpeed="11.89" duration="101.00" routeLength="1013.10" waitingTime="2.00" waitingCount="1" stopTime="0.00" timeLoss="32.12" rerouteNo="0" devices="tripinfo_down_43" vType="typeNS" speedFactor="1.04" vaporized=""/>
    <tripinfo id="right_42" depart="226.00" departLane="51o_0" departPos="5.10" departSpeed="0.00" departDelay="0.00" arrival="363.00" arrivalLane="52i_0" arrivalPos="10.00" arrivalSpeed="12.70" duration="137.00" routeLength="1015.10" waitingTime="37.00" waitingCount="1" stopTime="0.00" timeLoss="64.28" rerouteNo="0" devices="tripinfo_right_42" vType="typeWE" speedFactor="1.09" vaporized=""/>
    <tripinfo id="right_44" depart="231.00" departLane="51o_0" departPos="5.10" departSpeed="0.00" departDelay="1.00" arrival="367.00" arrivalLane="52i_0" arrivalPos="10.00" arrivalSpeed="12.02" duration="136.00" routeLength="1015.10" waitingTime="34.00" waitingCount="1" stopTime="0.00" timeLoss="61.55" rerouteNo="0" devices="tripinfo_right_44" vType="typeWE" speedFactor="1.04" vaporized=""/>
    <tripinfo id="right_45" depart="237.00" departLane="51o_0" departPos="5.10" departSpeed="0.00" departDelay="0.00" arrival="368.00" arrivalLane="52i_0" arrivalPos="10.00" arrivalSpeed="11.69" duration="131.00" routeLength="1015.10" waitingTime="30.00" waitingCount="1" stopTime="0.00" timeLoss="58.68" rerouteNo="0" devices="tripinfo_right_45" vType="typeWE" speedFactor="1.09" vaporized=""/>
    <tripinfo id="left_47" depart="259.00" departLane="52o_0" departPos="5.10" departSpeed="0.00" departDelay="0.00" arrival="371.00" arrivalLane="51i_0" arrivalPos="10.00" arrivalSpeed="10.40" duration="112.00" routeLength="1015.10" waitingTime="6.00" waitingCount="1" stopTime="0.00" timeLoss="31.03" rerouteNo="0" devices="tripinfo_left_47" vType="typeWE" speedFactor="0.90" vaporized=""/>
    <tripinfo id="right_46" depart="245.00" departLane="51o_0" departPos="5.10" departSpeed="0.00" departDelay="0.00" arrival="373.00" arrivalLane="52i_0" arrivalPos="10.00" arrivalSpeed="11.26" duration="128.00" routeLength="1015.10" waitingTime="22.00" waitingCount="1" stopTime="0.00" timeLoss="51.68" rerouteNo="0" devices="tripinfo_right_46" vType="typeWE" speedFactor="1.00" vaporized=""/>
    <tripinfo id="left_52" depart="274.00" departLane="52o_0" departPos="5.10" departSpeed="0.00" departDelay="0.00" arrival="373.00" arrivalLane="51i_0" arrivalPos="10.00" arrivalSpeed="10.82" duration="99.00" routeLength="1015.10" waitingTime="0.00" waitingCount="0" stopTime="0.00" timeLoss="23.41" rerouteNo="0" devices="tripinfo_left_52" vType="typeWE" speedFactor="1.02" vaporized=""/>
    <tripinfo id="left_53" depart="279.00" departLane="52o_0" departPos="5.10" departSpeed="0.00" departDelay="4.00" arrival="375.00" arrivalLane="51i_0" arrivalPos="10.00" arrivalSpeed="11.32" duration="96.00" routeLength="1015.10" waitingTime="0.00" waitingCount="0" stopTime="0.00" timeLoss="23.41" rerouteNo="0" devices="tripinfo_left_53" vType="typeWE" speedFactor="1.10" vaporized=""/>
    <tripinfo id="right_48" depart="260.00" departLane="51o_0" departPos="5.10" departSpeed="0.00" departDelay="0.00" arrival="381.00" arrivalLane="52i_0" arrivalPos="10.00" arrivalSpeed="10.08" duration="121.00" routeLength="1015.10" waitingTime="11.00" waitingCount="1" stopTime="0.00" timeLoss="38.06" rerouteNo="0" devices="tripinfo_right_48" vType="typeWE" speedFactor="0.88" vaporized=""/>
    <tripinfo id="left_56" depart="286.00" departLane="52o_0" departPos="5.10" departSpeed="0.00" departDelay="0.00" arrival="382.00" arrivalLane="51i_0" arrivalPos="10.00" arrivalSpeed="10.50" duration="96.00" routeLength="1015.10" waitingTime="0.00" waitingCount="0" stopTime="0.00" timeLoss="15.00" rerouteNo="0" devices="tripinfo_left_56" vType="typeWE" speedFactor="0.90" vaporized=""/>
    <tripinfo id="right_49" depart="265.00" departLane="51o_0" departPos="5.10" departSpeed="0.00" departDelay="3.00" arrival="385.00" arrivalLane="52i_0" arrivalPos="10.00" arrivalSpeed="9.89" duration="120.00" routeLength="1015.10" waitingTime="6.00" waitingCount="1" stopTime="0.00" timeLoss="35.22" rerouteNo="0" devices="tripinfo_right_49" vType="typeWE" speedFactor="0.85" vaporized=""/>
    <tripinfo id="right_50" depart="270.00" departLane="51o_0" departPos="5.10" departSpeed="0.00" departDelay="1.00" arrival="387.00" arrivalLane="52i_0" arrivalPos="10.00" arrivalSpeed="10.21" duration="117.00" routeLength="1015.10" waitingTime="3.00" waitingCount="1" stopTime="0.00" timeLoss="32.58" rerouteNo="0" devices="tripinfo_right_50" vType="typeWE" speedFactor="0.85" vaporized=""/>
    <tripinfo id="right_51" depart="275.00" departLane="51o_0" departPos="5.10" departSpeed="0.00" departDelay="4.00" arrival="388.00" arrivalLane="52i_0" arrivalPos="10.00" arrivalSpeed="9.92" duration="113.00" routeLength="1015.10" waitingTime="0.00" waitingCount="0" stopTime="0.00" timeLoss="43.76" rerouteNo="0" devices="tripinfo_right_51" vType="typeWE" speedFactor="1.17" vaporized=""/>
    <tripinfo id="right_54" depart="280.00" departLane="51o_0" departPos="5.10" departSpeed="0.00" departDelay="3.00" arrival="390.00" arrivalLane="52i_0" arrivalPos="10.00" arrivalSpeed="10.88" duration="110.00" routeLength="1015.10" waitingTime="0.00" waitingCount="0" stopTime="0.00" timeLoss="34.18" rerouteNo="0" devices="tripinfo_right_54" vType="typeWE" speedFactor="1.00" vaporized=""/>
    <tripinfo id="right_55" depart="285.00" departLane="51o_0" departPos="5.10" departSpeed="0.00" departDelay="0.00" arrival="392.00" arrivalLane="52i_0" arrivalPos="10.00" arrivalSpeed="11.32" duration="107.00" routeLength="1015.10" waitingTime="0.00" waitingCount="0" stopTime="0.00" timeLoss="30.57" rerouteNo="0" devices="tripinfo_right_55" vType="typeWE" speedFactor="1.00" vaporized=""/>
    <tripinfo id="right_57" depart="304.00" departLane="51o_0" departPos="5.10" departSpeed="0.00" departDelay="3.00" arrival="394.00" arrivalLane="52i_0" arrivalPos="10.00" arrivalSpeed="11.63" duration="90.00" routeLength="1015.10" waitingTime="0.00" waitingCount="0" stopTime="0.00" timeLoss="19.28" rerouteNo="0" devices="tripinfo_right_57" vType="typeWE" speedFactor="1.14" vaporized=""/>
    <tripinfo id="left_58" depart="307.00" departLane="52o_0" departPos="5.10" departSpeed="0.00" departDelay="3.00" arrival="398.00" arrivalLane="51i_0" arrivalPos="10.00" arrivalSpeed="11.42" duration="91.00" routeLength="1015.10" waitingTime="0.00" waitingCount="0" stopTime="0.00" timeLoss="15.65" rerouteNo="0" devices="tripinfo_left_58" vType="typeWE" speedFactor="1.02" vaporized=""/>
    <tripinfo id="left_59" depart="312.00" departLane="52o_0" departPos="5.10" departSpeed="0.00" departDelay="3.00" arrival="406.00" arrivalLane="51i_0" arrivalPos="10.00" arrivalSpeed="11.28" duration="94.00" routeLength="1015.10" waitingTime="0.00" waitingCount="0" stopTime="0.00" timeLoss="16.68" rerouteNo="0" devices="tripinfo_left_59" vType="typeWE" speedFactor="0.97" vaporized=""/>
    <tripinfo id="left_60" depart="318.00" departLane="52o_0" departPos="5.10" departSpeed="0.00" departDelay="7.00" arrival="408.00" arrivalLane="51i_0" arrivalPos="10.00" arrivalSpeed="11.28" duration="90.00" routeLength="1015.10" waitingTime="0.00" waitingCount="0" stopTime="0.00" timeLoss="17.14" rerouteNo="0" devices="tripinfo_left_60" vType="typeWE" speedFactor="1.08" vaporized=""/>
    <tripinfo id="left_61" depart="323.00" departLane="52o_0" departPos="5.10" departSpeed="0.00" departDelay="5.00" arrival="410.00" arrivalLane="51i_0" arrivalPos="10.00" arrivalSpeed="11.95" duration="87.00" routeLength="1015.10" waitingTime="0.00" waitingCount="0" stopTime="0.00" timeLoss="15.38" rerouteNo="0" devices="tripinfo_left_61" vType="typeWE" speedFactor="1.12" vaporized=""/>
    <tripinfo id="left_62" depart="328.00" departLane="52o_0" departPos="5.10" departSpeed="0.00" departDelay="9.00" arrival="419.00" arrivalLane="51i_0" arrivalPos="10.00" arrivalSpeed="11.74" duration="91.00" routeLength="1015.10" waitingTime="0.00" waitingCount="0" stopTime="0.00" timeLoss="15.27" rerouteNo="0" devices="tripinfo_left_62" vType="typeWE" speedFactor="1.02" vaporized=""/>
    <tripinfo id="left_63" depart="333.00" departLane="52o_0" departPos="5.10" departSpeed="0.00" departDelay="1.00" arrival="425.00" arrivalLane="51i_0" arrivalPos="10.00" arrivalSpeed="11.46" duration="92.00" routeLength="1015.10" waitingTime="0.00" waitingCount="0" stopTime="0.00" timeLoss="14.85" rerouteNo="0" devices="tripinfo_left_63" vType="typeWE" speedFactor="0.99" vaporized=""/>
    <tripinfo id="down_64" depart="338.00" departLane="54o_0" departPos="7.10" departSpeed="0.00" departDelay="0.00" arrival="444.00" arrivalLane="53i_0" arrivalPos="10.00" arrivalSpeed="11.10" duration="106.00" routeLength="1013.10" waitingTime="2.00" waitingCount="1" stopTime="0.00" timeLoss="29.61" rerouteNo="0" devices="tripinfo_down_64" vType="typeNS" speedFactor="0.94" vaporized=""/>
    <tripinfo id="down_67" depart="348.00" departLane="54o_0" departPos="7.10" departSpeed="0.00" departDelay="0.00" arrival="447.00" arrivalLane="53i_0" arrivalPos="10.00" arrivalSpeed="10.72" duration="99.00" routeLength="1013.10" waitingTime="0.00" waitingCount="0" stopTime="0.00" timeLoss="20.77" rerouteNo="0" devices="tripinfo_down_67" vType="typeNS" speedFactor="0.91" vaporized=""/>
    <tripinfo id="down_71" depart="368.00" departLane="54o_0" departPos="7.10" departSpeed="0.00" departDelay="0.00" arrival="459.00" arrivalLane="53i_0" arrivalPos="10.00" arrivalSpeed="11.07" duration="91.00" routeLength="1013.10" waitingTime="0.00" waitingCount="0" stopTime="0.00" timeLoss="17.04" rerouteNo="0" devices="tripinfo_down_71" vType="typeNS" speedFactor="0.97" vaporized=""/>
    <tripinfo id="right_68" depart="358.00" departLane="51o_0" departPos="5.10" departSpeed="0.00" departDelay="0.00" arrival="476.00" arrivalLane="52i_0" arrivalPos="10.00" arrivalSpeed="11.65" duration="118.00" routeLength="1015.10" waitingTime="17.00" waitingCount="1" stopTime="0.00" timeLoss="43.78" rerouteNo="0" devices="tripinfo_right_68" vType="typeWE" speedFactor="1.04" vaporized=""/>
    <tripinfo id="right_72" depart="377.00" departLane="51o_0" departPos="5.10" departSpeed="0.00" departDelay="0.00" arrival="482.00" arrivalLane="52i_0" arrivalPos="10.00" arrivalSpeed="11.03" duration="105.00" routeLength="1015.10" waitingTime="0.00" waitingCount="0" stopTime="0.00" timeLoss="26.02" rerouteNo="0" devices="tripinfo_right_72" vType="typeWE" speedFactor="0.94" vaporized=""/>
    <tripinfo id="left_65" depart="342.00" departLane="52o_0" departPos="5.10" departSpeed="0.00" departDelay="0.00" arrival="484.00" arrivalLane="51i_0" arrivalPos="10.00" arrivalSpeed="10.50" duration="142.00" routeLength="1015.10" waitingTime="34.00" waitingCount="1" stopTime="0.00" timeLoss="60.01" rerouteNo="0" devices="tripinfo_left_65" vType="typeWE" speedFactor="0.88" vaporized=""/>
    <tripinfo id="right_73" depart="387.00" departLane="51o_0" departPos="5.10" departSpeed="0.00" departDelay="0.00" arrival="484.00" arrivalLane="52i_0" arrivalPos="10.00" arrivalSpeed="11.40" duration="97.00" routeLength="1015.10" waitingTime="0.00" waitingCount="0" stopTime="0.00" timeLoss="23.10" rerouteNo="0" devices="tripinfo_right_73" vType="typeWE" speedFactor="1.06" vaporized=""/>
    <tripinfo id="left_66" depart="347.00" departLane="52o_0" departPos="5.10" departSpeed="0.00" departDelay="2.00" arrival="486.00" arrivalLane="51i_0" arrivalPos="10.00" arrivalSpeed="10.49" duration="139.00" routeLength="1015.10" waitingTime="29.00" waitingCount="1" stopTime="0.00" timeLoss="58.22" rerouteNo="0" devices="tripinfo_left_66" vType="typeWE" speedFactor="0.91" vaporized=""/>
    <tripinfo id="left_69" depart="359.00" departLane="52o_0" departPos="5.10" departSpeed="0.00" departDelay="0.00" arrival="488.00" arrivalLane="51i_0" arrivalPos="10.00" arrivalSpeed="11.12" duration="129.00" routeLength="1015.10" waitingTime="18.00" waitingCount="1" stopTime="0.00" timeLoss="53.61" rerouteNo="0" devices="tripinfo_left_69" vType="typeWE" speedFactor="1.02" vaporized=""/>