<?xml version="1.0" encoding="UTF-8"?>

<!-- generated on 2024-06-11 12:34:25 by Eclipse SUMO sumo Version 1.20.0
<configuration xmlns:xsi="http://www.w3.org/2001/XMLSchema-instance" xsi:noNamespaceSchemaLocation="http://sumo.dlr.de/xsd/sumoConfiguration.xsd">

    <input>
        <net-file value="config/cross.net.xml"/>
        <route-files value="config/cross.rou.xml"/>
        <additional-files value="config/cross.det.xml"/>
    </input>

    <output>
        <queue-output value="queueinfo.xml"/>
        <tripinfo-output value="tripinfo.xml"/>
    </output>

    <time>
        <begin value="0"/>
    </time>

    <report>
        <verbose value="true"/>
        <no-step-log value="true"/>
    </report>

    <traci_server>
        <remote-port value="62372"/>
    </traci_server>

</configuration>
-->

<queue-export xmlns:xsi="http://www.w3.org/2001/XMLSchema-instance" xsi:noNamespaceSchemaLocation="http://sumo.dlr.de/xsd/queue_file.xsd">
    <data timestep="0.00">
        <lanes/>
    </data>
    <data timestep="1.00">
        <lanes/>
    </data>
    <data timestep="2.00">
        <lanes/>
    </data>
    <data timestep="3.00">
        <lanes/>
    </data>
    <data timestep="4.00">
        <lanes/>
    </data>
    <data timestep="5.00">
        <lanes/>
    </data>
    <data timestep="6.00">
        <lanes/>
    </data>
    <data timestep="7.00">
        <lanes>
            <lane id="3c_1" queueing_time="1.00" queueing_length="472.72" queueing_length_experimental="0.00"/>
        </lanes>
    </data>
    <data timestep="8.00">
        <lanes/>
    </data>
    <data timestep="9.00">
        <lanes/>
    </data>
    <data timestep="10.00">
        <lanes/>
    </data>
    <data timestep="11.00">
        <lanes/>
    </data>
    <data timestep="12.00">
        <lanes/>
    </data>
    <data timestep="13.00">
        <lanes/>
    </data>
    <data timestep="14.00">
        <lanes>
            <lane id="3c_4" queueing_time="1.00" queueing_length="479.89" queueing_length_experimental="0.00"/>
        </lanes>
    </data>
    <data timestep="15.00">
        <lanes/>
    </data>
    <data timestep="16.00">
        <lanes/>
    </data>
    <data timestep="17.00">
        <lanes/>
    </data>
    <data timestep="18.00">
        <lanes/>
    </data>
    <data timestep="19.00">
        <lanes/>
    </data>
    <data timestep="20.00">
        <lanes/>
    </data>
    <data timestep="21.00">
        <lanes/>
    </data>
    <data timestep="22.00">
        <lanes/>
    </data>
    <data timestep="23.00">
        <lanes>
            <lane id="4c_3" queueing_time="1.00" queueing_length="396.44" queueing_length_experimental="0.00"/>
        </lanes>
    </data>
    <data timestep="24.00">
        <lanes/>
    </data>
    <data timestep="25.00">
        <lanes/>
    </data>
    <data timestep="26.00">
        <lanes/>
    </data>
    <data timestep="27.00">
        <lanes>
            <lane id="3c_4" queueing_time="1.00" queueing_length="278.79" queueing_length_experimental="278.79"/>
        </lanes>
    </data>
    <data timestep="28.00">
        <lanes/>
    </data>
    <data timestep="29.00">
        <lanes/>
    </data>
    <data timestep="30.00">
        <lanes/>
    </data>
    <data timestep="31.00">
        <lanes/>
    </data>
    <data timestep="32.00">
        <lanes/>
    </data>
    <data timestep="33.00">
        <lanes>
            <lane id="3c_3" queueing_time="1.00" queueing_length="443.50" queueing_length_experimental="0.00"/>
        </lanes>
    </data>
    <data timestep="34.00">
        <lanes>
            <lane id="3c_3" queueing_time="2.00" queueing_length="443.50" queueing_length_experimental="0.00"/>
        </lanes>
    </data>
    <data timestep="35.00">
        <lanes/>
    </data>
    <data timestep="36.00">
        <lanes>
            <lane id="3c_2" queueing_time="1.00" queueing_length="471.51" queueing_length_experimental="0.00"/>
        </lanes>
    </data>
    <data timestep="37.00">
        <lanes>
            <lane id="3c_4" queueing_time="1.00" queueing_length="290.20" queueing_length_experimental="290.20"/>
        </lanes>
    </data>
    <data timestep="38.00">
        <lanes>
            <lane id="3c_4" queueing_time="2.00" queueing_length="290.20" queueing_length_experimental="290.20"/>
            <lane id="4c_4" queueing_time="1.00" queueing_length="237.22" queueing_length_experimental="237.22"/>
        </lanes>
    </data>
    <data timestep="39.00">
        <lanes>
            <lane id="3c_4" queueing_time="0.00" queueing_length="0.00" queueing_length_experimental="6.00"/>
            <lane id="4c_4" queueing_time="2.00" queueing_length="237.22" queueing_length_experimental="244.39"/>
        </lanes>
    </data>
    <data timestep="40.00">
        <lanes>
            <lane id="2c_1" queueing_time="0.00" queueing_length="0.00" queueing_length_experimental="6.03"/>
            <lane id="3c_4" queueing_time="1.00" queueing_length="6.00" queueing_length_experimental="13.32"/>
            <lane id="4c_4" queueing_time="0.00" queueing_length="0.00" queueing_length_experimental="244.25"/>
        </lanes>
    </data>
    <data timestep="41.00">
        <lanes>
            <lane id="2c_1" queueing_time="1.00" queueing_length="6.01" queueing_length_experimental="6.01"/>
            <lane id="3c_4" queueing_time="2.00" queueing_length="6.00" queueing_length_experimental="21.28"/>
            <lane id="4c_4" queueing_time="0.00" queueing_length="0.00" queueing_length_experimental="251.42"/>
        </lanes>
    </data>
    <data timestep="42.00">
        <lanes>
            <lane id="2c_1" queueing_time="2.00" queueing_length="6.00" queueing_length_experimental="6.00"/>
            <lane id="3c_4" queueing_time="3.00" queueing_length="13.00" queueing_length_experimental="20.48"/>
            <lane id="4c_4" queueing_time="0.00" queueing_length="0.00" queueing_length_experimental="259.20"/>
        </lanes>
    </data>
    <data timestep="43.00">
        <lanes>
            <lane id="1c_0" queueing_time="0.00" queueing_length="0.00" queueing_length_experimental="6.01"/>
            <lane id="2c_1" queueing_time="3.00" queueing_length="6.00" queueing_length_experimental="6.00"/>
            <lane id="3c_3" queueing_time="1.00" queueing_length="458.92" queueing_length_experimental="0.00"/>
            <lane id="3c_4" queueing_time="4.00" queueing_length="13.00" queueing_length_experimental="20.05"/>
        </lanes>
    </data>
    <data timestep="44.00">
        <lanes>
            <lane id="1c_0" queueing_time="1.00" queueing_length="6.00" queueing_length_experimental="6.00"/>
            <lane id="2c_1" queueing_time="4.00" queueing_length="6.00" queueing_length_experimental="6.00"/>
            <lane id="3c_3" queueing_time="2.00" queueing_length="458.92" queueing_length_experimental="0.00"/>
            <lane id="3c_4" queueing_time="5.00" queueing_length="225.43" queueing_length_experimental="225.43"/>
        </lanes>
    </data>
    <data timestep="45.00">
        <lanes>
            <lane id="1c_0" queueing_time="2.00" queueing_length="6.00" queueing_length_experimental="6.00"/>
            <lane id="2c_1" queueing_time="5.00" queueing_length="6.00" queueing_length_experimental="13.07"/>
            <lane id="3c_1" queueing_time="1.00" queueing_length="475.94" queueing_length_experimental="0.00"/>
            <lane id="3c_2" queueing_time="1.00" queueing_length="436.10" queueing_length_experimental="0.00"/>
            <lane id="3c_3" queueing_time="1.00" queueing_length="465.97" queueing_length_experimental="0.00"/>
            <lane id="3c_4" queueing_time="6.00" queueing_length="20.01" queueing_length_experimental="232.59"/>
        </lanes>
    </data>
    <data timestep="46.00">
        <lanes>
            <lane id="1c_0" queueing_time="3.00" queueing_length="6.00" queueing_length_experimental="6.00"/>
            <lane id="2c_1" queueing_time="6.00" queueing_length="13.00" queueing_length_experimental="13.00"/>
            <lane id="3c_2" queueing_time="2.00" queueing_length="436.10" queueing_length_experimental="0.00"/>
            <lane id="3c_4" queueing_time="7.00" queueing_length="27.02" queueing_length_experimental="27.02"/>
        </lanes>
    </data>
    <data timestep="47.00">
        <lanes>
            <lane id="1c_0" queueing_time="4.00" queueing_length="6.00" queueing_length_experimental="6.00"/>
            <lane id="1c_1" queueing_time="0.00" queueing_length="0.00" queueing_length_experimental="6.19"/>
            <lane id="2c_1" queueing_time="7.00" queueing_length="13.00" queueing_length_experimental="13.00"/>
            <lane id="2c_2" queueing_time="0.00" queueing_length="0.00" queueing_length_experimental="6.22"/>
            <lane id="3c_4" queueing_time="8.00" queueing_length="27.01" queueing_length_experimental="344.65"/>
            <lane id="4c_3" queueing_time="1.00" queueing_length="462.59" queueing_length_experimental="0.00"/>
        </lanes>
    </data>
    <data timestep="48.00">
        <lanes>
            <lane id="1c_0" queueing_time="5.00" queueing_length="6.00" queueing_length_experimental="6.00"/>
            <lane id="1c_1" queueing_time="0.00" queueing_length="0.00" queueing_length_experimental="6.08"/>
            <lane id="2c_1" queueing_time="8.00" queueing_length="13.00" queueing_length_experimental="13.00"/>
            <lane id="2c_2" queueing_time="0.00" queueing_length="0.00" queueing_length_experimental="13.33"/>
            <lane id="3c_3" queueing_time="1.00" queueing_length="350.92" queueing_length_experimental="350.92"/>
            <lane id="3c_4" queueing_time="9.00" queueing_length="27.00" queueing_length_experimental="34.04"/>
            <lane id="4c_4" queueing_time="0.00" queueing_length="0.00" queueing_length_experimental="304.76"/>
        </lanes>
    </data>
    <data timestep="49.00">
        <lanes>
            <lane id="1c_0" queueing_time="6.00" queueing_length="6.00" queueing_length_experimental="6.00"/>
            <lane id="1c_1" queueing_time="1.00" queueing_length="6.01" queueing_length_experimental="6.01"/>
            <lane id="2c_1" queueing_time="9.00" queueing_length="13.00" queueing_length_experimental="20.31"/>
            <lane id="2c_2" queueing_time="1.00" queueing_length="6.01" queueing_length_experimental="13.18"/>
            <lane id="2c_3" queueing_time="0.00" queueing_length="0.00" queueing_length_experimental="14.77"/>
            <lane id="3c_2" queueing_time="1.00" queueing_length="413.47" queueing_length_experimental="0.00"/>
            <lane id="3c_3" queueing_time="1.00" queueing_length="387.44" queueing_length_experimental="358.08"/>
            <lane id="3c_4" queueing_time="10.00" queueing_length="34.01" queueing_length_experimental="41.39"/>
            <lane id="4c_4" queueing_time="0.00" queueing_length="0.00" queueing_length_experimental="6.57"/>
        </lanes>
    </data>
    <data timestep="50.00">
        <lanes>
            <lane id="1c_0" queueing_time="7.00" queueing_length="6.00" queueing_length_experimental="13.39"/>
            <lane id="1c_1" queueing_time="2.00" queueing_length="6.00" queueing_length_experimental="6.00"/>
            <lane id="2c_1" queueing_time="10.00" queueing_length="13.00" queueing_length_experimental="20.01"/>
            <lane id="2c_2" queueing_time="2.00" queueing_length="6.00" queueing_length_experimental="13.07"/>
            <lane id="2c_3" queueing_time="1.00" queueing_length="6.04" queueing_length_experimental="13.45"/>
            <lane id="3c_2" queueing_time="2.00" queueing_length="413.47" queueing_length_experimental="0.00"/>
            <lane id="3c_3" queueing_time="2.00" queueing_length="334.77" queueing_length_experimental="334.77"/>
            <lane id="3c_4" queueing_time="11.00" queueing_length="34.01" queueing_length_experimental="48.55"/>
            <lane id="4c_4" queueing_time="0.00" queueing_length="0.00" queueing_length_experimental="6.21"/>
        </lanes>
    </data>
    <data timestep="51.00">
        <lanes>
            <lane id="1c_0" queueing_time="8.00" queueing_length="6.00" queueing_length_experimental="13.19"/>
            <lane id="1c_1" queueing_time="3.00" queueing_length="6.00" queueing_length_experimental="6.00"/>
            <lane id="1c_2" queueing_time="0.00" queueing_length="0.00" queueing_length_experimental="6.03"/>
            <lane id="2c_1" queueing_time="11.00" queueing_length="20.00" queueing_length_experimental="20.00"/>
            <lane id="2c_2" queueing_time="3.00" queueing_length="13.02" queueing_length_experimental="20.35"/>
            <lane id="2c_3" queueing_time="2.00" queueing_length="6.01" queueing_length_experimental="13.16"/>
            <lane id="3c_3" queueing_time="0.00" queueing_length="0.00" queueing_length_experimental="283.90"/>
            <lane id="3c_4" queueing_time="12.00" queueing_length="310.17" queueing_length_experimental="310.17"/>
            <lane id="4c_4" queueing_time="0.00" queueing_length="0.00" queueing_length_experimental="6.05"/>
        </lanes>
    </data>
    <data timestep="52.00">
        <lanes>
            <lane id="1c_0" queueing_time="9.00" queueing_length="6.00" queueing_length_experimental="13.05"/>
            <lane id="1c_1" queueing_time="4.00" queueing_length="6.00" queueing_length_experimental="13.44"/>
            <lane id="1c_2" queueing_time="1.00" queueing_length="6.00" queueing_length_experimental="6.00"/>
            <lane id="2c_1" queueing_time="12.00" queueing_length="20.00" queueing_length_experimental="20.00"/>
            <lane id="2c_2" queueing_time="4.00" queueing_length="13.00" queueing_length_experimental="20.09"/>
            <lane id="2c_3" queueing_time="3.00" queueing_length="6.00" queueing_length_experimental="20.21"/>
            <lane id="3c_4" queueing_time="13.00" queueing_length="41.01" queueing_length_experimental="55.60"/>
            <lane id="4c_4" queueing_time="1.00" queueing_length="6.02" queueing_length_experimental="6.02"/>
        </lanes>
    </data>
    <data timestep="53.00">
        <lanes>
            <lane id="1c_0" queueing_time="10.00" queueing_length="13.02" queueing_length_experimental="13.02"/>
            <lane id="1c_1" queueing_time="5.00" queueing_length="6.00" queueing_length_experimental="13.12"/>
            <lane id="1c_2" queueing_time="2.00" queueing_length="6.00" queueing_length_experimental="6.00"/>
            <lane id="2c_1" queueing_time="13.00" queueing_length="20.00" queueing_length_experimental="27.03"/>
            <lane id="2c_2" queueing_time="5.00" queueing_length="20.03" queueing_length_experimental="27.27"/>
            <lane id="2c_3" queueing_time="4.00" queueing_length="13.01" queueing_length_experimental="27.42"/>
            <lane id="3c_4" queueing_time="14.00" queueing_length="305.68" queueing_length_experimental="305.68"/>
            <lane id="4c_4" queueing_time="2.00" queueing_length="6.01" queueing_length_experimental="6.01"/>
        </lanes>
    </data>
    <data timestep="54.00">
        <lanes>
            <lane id="1c_0" queueing_time="11.00" queueing_length="13.00" queueing_length_experimental="13.00"/>
            <lane id="1c_1" queueing_time="6.00" queueing_length="13.05" queueing_length_experimental="13.05"/>
            <lane id="1c_2" queueing_time="3.00" queueing_length="6.00" queueing_length_experimental="6.00"/>
            <lane id="2c_1" queueing_time="14.00" queueing_length="27.01" queueing_length_experimental="34.38"/>
            <lane id="2c_2" queueing_time="6.00" queueing_length="20.01" queueing_length_experimental="34.54"/>
            <lane id="2c_3" queueing_time="5.00" queueing_length="20.02" queueing_length_experimental="27.07"/>
            <lane id="3c_4" queueing_time="15.00" queueing_length="48.01" queueing_length_experimental="313.11"/>
            <lane id="4c_4" queueing_time="3.00" queueing_length="6.00" queueing_length_experimental="6.00"/>
        </lanes>
    </data>
    <data timestep="55.00">
        <lanes>
            <lane id="1c_0" queueing_time="12.00" queueing_length="13.00" queueing_length_experimental="13.00"/>
            <lane id="1c_1" queueing_time="7.00" queueing_length="13.00" queueing_length_experimental="13.00"/>
            <lane id="1c_2" queueing_time="4.00" queueing_length="6.00" queueing_length_experimental="6.00"/>
            <lane id="1c_3" queueing_time="0.00" queueing_length="0.00" queueing_length_experimental="6.01"/>
            <lane id="2c_1" queueing_time="15.00" queueing_length="27.01" queueing_length_experimental="34.17"/>
            <lane id="2c_2" queueing_time="7.00" queueing_length="27.04" queueing_length_experimental="34.23"/>
            <lane id="2c_3" queueing_time="6.00" queueing_length="27.03" queueing_length_experimental="27.03"/>
            <lane id="3c_4" queueing_time="16.00" queueing_length="388.96" queueing_length_experimental="312.17"/>
            <lane id="4c_4" queueing_time="4.00" queueing_length="6.00" queueing_length_experimental="6.00"/>
        </lanes>
    </data>
    <data timestep="56.00">
        <lanes>
            <lane id="1c_0" queueing_time="13.00" queueing_length="13.00" queueing_length_experimental="13.00"/>
            <lane id="1c_1" queueing_time="8.00" queueing_length="13.00" queueing_length_experimental="13.00"/>
            <lane id="1c_2" queueing_time="5.00" queueing_length="6.00" queueing_length_experimental="6.00"/>
            <lane id="1c_3" queueing_time="1.00" queueing_length="6.00" queueing_length_experimental="6.00"/>
            <lane id="2c_1" queueing_time="16.00" queueing_length="27.01" queueing_length_experimental="34.06"/>
            <lane id="2c_2" queueing_time="8.00" queueing_length="27.01" queueing_length_experimental="34.08"/>
            <lane id="2c_3" queueing_time="7.00" queueing_length="27.02" queueing_length_experimental="34.32"/>
            <lane id="3c_4" queueing_time="17.00" queueing_length="55.02" queueing_length_experimental="319.50"/>
            <lane id="4c_4" queueing_time="5.00" queueing_length="6.00" queueing_length_experimental="6.00"/>
        </lanes>
    </data>
    <data timestep="57.00">
        <lanes>
            <lane id="1c_0" queueing_time="14.00" queueing_length="13.00" queueing_length_experimental="13.00"/>
            <lane id="1c_1" queueing_time="9.00" queueing_length="13.00" queueing_length_experimental="13.00"/>
            <lane id="1c_2" queueing_time="6.00" queueing_length="6.00" queueing_length_experimental="6.00"/>
            <lane id="1c_3" queueing_time="2.00" queueing_length="6.00" queueing_length_experimental="6.00"/>
            <lane id="2c_1" queueing_time="17.00" queueing_length="34.01" queueing_length_experimental="34.01"/>
            <lane id="2c_2" queueing_time="9.00" queueing_length="34.01" queueing_length_experimental="34.01"/>
            <lane id="2c_3" queueing_time="8.00" queueing_length="27.01" queueing_length_experimental="34.14"/>
            <lane id="3c_4" queueing_time="18.00" queueing_length="55.01" queueing_length_experimental="55.01"/>
            <lane id="4c_3" queueing_time="1.00" queueing_length="192.05" queueing_length_experimental="192.05"/>
            <lane id="4c_4" queueing_time="6.00" queueing_length="6.00" queueing_length_experimental="6.00"/>
        </lanes>
    </data>
    <data timestep="58.00">
        <lanes>
            <lane id="1c_0" queueing_time="15.00" queueing_length="13.00" queueing_length_experimental="13.00"/>
            <lane id="1c_1" queueing_time="10.00" queueing_length="13.00" queueing_length_experimental="13.00"/>
            <lane id="1c_2" queueing_time="7.00" queueing_length="6.00" queueing_length_experimental="6.00"/>
            <lane id="1c_3" queueing_time="3.00" queueing_length="6.00" queueing_length_experimental="6.00"/>
            <lane id="2c_1" queueing_time="18.00" queueing_length="34.01" queueing_length_experimental="34.01"/>
            <lane id="2c_2" queueing_time="10.00" queueing_length="34.01" queueing_length_experimental="34.01"/>
            <lane id="2c_3" queueing_time="9.00" queueing_length="27.00" queueing_length_experimental="34.02"/>
            <lane id="3c_4" queueing_time="19.00" queueing_length="315.67" queueing_length_experimental="315.67"/>
            <lane id="4c_3" queueing_time="0.00" queueing_length="0.00" queueing_length_experimental="199.15"/>
            <lane id="4c_4" queueing_time="7.00" queueing_length="6.00" queueing_length_experimental="6.00"/>
        </lanes>
    </data>
    <data timestep="59.00">
        <lanes>
            <lane id="1c_0" queueing_time="16.00" queueing_length="13.00" queueing_length_experimental="13.00"/>
            <lane id="1c_1" queueing_time="11.00" queueing_length="13.00" queueing_length_experimental="13.00"/>
            <lane id="1c_2" queueing_time="8.00" queueing_length="6.00" queueing_length_experimental="6.00"/>
            <lane id="1c_3" queueing_time="4.00" queueing_length="6.00" queueing_length_experimental="6.00"/>
            <lane id="2c_1" queueing_time="19.00" queueing_length="34.01" queueing_length_experimental="41.02"/>
            <lane id="2c_2" queueing_time="11.00" queueing_length="34.01" queueing_length_experimental="34.01"/>
            <lane id="2c_3" queueing_time="10.00" queueing_length="34.01" queueing_length_experimental="34.01"/>
            <lane id="3c_1" queueing_time="1.00" queueing_length="478.17" queueing_length_experimental="0.00"/>
            <lane id="3c_4" queueing_time="20.00" queueing_length="62.02" queueing_length_experimental="322.69"/>
            <lane id="4c_4" queueing_time="8.00" queueing_length="6.00" queueing_length_experimental="6.00"/>
        </lanes>
    </data>
    <data timestep="60.00">
        <lanes>
            <lane id="1c_0" queueing_time="17.00" queueing_length="13.00" queueing_length_experimental="13.00"/>
            <lane id="1c_1" queueing_time="12.00" queueing_length="13.00" queueing_length_experimental="13.00"/>
            <lane id="1c_2" queueing_time="9.00" queueing_length="6.00" queueing_length_experimental="6.00"/>
            <lane id="1c_3" queueing_time="5.00" queueing_length="6.00" queueing_length_experimental="6.00"/>
            <lane id="2c_1" queueing_time="20.00" queueing_length="41.01" queueing_length_experimental="48.11"/>
            <lane id="2c_2" queueing_time="12.00" queueing_length="34.01" queueing_length_experimental="34.01"/>
            <lane id="2c_3" queueing_time="11.00" queueing_length="34.01" queueing_length_experimental="34.01"/>
            <lane id="3c_3" queueing_time="1.00" queueing_length="369.23" queueing_length_experimental="0.00"/>
            <lane id="3c_4" queueing_time="21.00" queueing_length="62.01" queueing_length_experimental="329.72"/>
            <lane id="4c_3" queueing_time="1.00" queueing_length="225.29" queueing_length_experimental="225.29"/>
            <lane id="4c_4" queueing_time="9.00" queueing_length="391.19" queueing_length_experimental="6.00"/>
        </lanes>
    </data>
    <data timestep="61.00">
        <lanes>
            <lane id="1c_0" queueing_time="18.00" queueing_length="13.00" queueing_length_experimental="13.00"/>
            <lane id="1c_1" queueing_time="13.00" queueing_length="13.00" queueing_length_experimental="13.00"/>
            <lane id="1c_2" queueing_time="10.00" queueing_length="6.00" queueing_length_experimental="6.00"/>
            <lane id="1c_3" queueing_time="6.00" queueing_length="6.00" queueing_length_experimental="6.00"/>
            <lane id="2c_1" queueing_time="21.00" queueing_length="48.02" queueing_length_experimental="48.02"/>
            <lane id="2c_2" queueing_time="13.00" queueing_length="34.01" queueing_length_experimental="41.01"/>
            <lane id="2c_3" queueing_time="12.00" queueing_length="34.01" queueing_length_experimental="34.01"/>
            <lane id="3c_4" queueing_time="22.00" queueing_length="256.73" queueing_length_experimental="336.80"/>
            <lane id="4c_3" queueing_time="1.00" queueing_length="384.32" queueing_length_experimental="0.00"/>
            <lane id="4c_4" queueing_time="10.00" queueing_length="6.00" queueing_length_experimental="19.10"/>
        </lanes>
    </data>
    <data timestep="62.00">
        <lanes>
            <lane id="1c_0" queueing_time="19.00" queueing_length="13.00" queueing_length_experimental="13.00"/>
            <lane id="1c_1" queueing_time="14.00" queueing_length="13.00" queueing_length_experimental="13.00"/>
            <lane id="1c_2" queueing_time="11.00" queueing_length="6.00" queueing_length_experimental="6.00"/>
            <lane id="1c_3" queueing_time="7.00" queueing_length="6.00" queueing_length_experimental="6.00"/>
            <lane id="2c_1" queueing_time="22.00" queueing_length="48.01" queueing_length_experimental="48.01"/>
            <lane id="2c_2" queueing_time="14.00" queueing_length="41.01" queueing_length_experimental="41.01"/>
            <lane id="2c_3" queueing_time="13.00" queueing_length="34.01" queueing_length_experimental="34.01"/>
            <lane id="3c_3" queueing_time="1.00" queueing_length="475.03" queueing_length_experimental="0.00"/>
            <lane id="3c_4" queueing_time="23.00" queueing_length="69.02" queueing_length_experimental="336.57"/>
            <lane id="4c_4" queueing_time="11.00" queueing_length="6.00" queueing_length_experimental="18.03"/>
        </lanes>
    </data>
    <data timestep="63.00">
        <lanes>
            <lane id="1c_0" queueing_time="20.00" queueing_length="13.00" queueing_length_experimental="13.00"/>
            <lane id="1c_1" queueing_time="15.00" queueing_length="13.00" queueing_length_experimental="13.00"/>
            <lane id="1c_2" queueing_time="12.00" queueing_length="6.00" queueing_length_experimental="6.00"/>
            <lane id="1c_3" queueing_time="8.00" queueing_length="6.00" queueing_length_experimental="6.00"/>
            <lane id="2c_1" queueing_time="23.00" queueing_length="48.01" queueing_length_experimental="55.43"/>
            <lane id="2c_2" queueing_time="15.00" queueing_length="41.01" queueing_length_experimental="48.36"/>
            <lane id="2c_3" queueing_time="14.00" queueing_length="34.01" queueing_length_experimental="41.06"/>
            <lane id="3c_4" queueing_time="24.00" queueing_length="76.04" queueing_length_experimental="343.58"/>
            <lane id="4c_4" queueing_time="12.00" queueing_length="18.01" queueing_length_experimental="25.43"/>
        </lanes>
    </data>
    <data timestep="64.00">
        <lanes>
            <lane id="1c_0" queueing_time="21.00" queueing_length="13.00" queueing_length_experimental="13.00"/>
            <lane id="1c_1" queueing_time="16.00" queueing_length="13.00" queueing_length_experimental="13.00"/>
            <lane id="1c_2" queueing_time="13.00" queueing_length="6.00" queueing_length_experimental="6.00"/>
            <lane id="1c_3" queueing_time="9.00" queueing_length="6.00" queueing_length_experimental="6.00"/>
            <lane id="2c_1" queueing_time="24.00" queueing_length="48.01" queueing_length_experimental="55.02"/>
            <lane id="2c_2" queueing_time="16.00" queueing_length="41.01" queueing_length_experimental="48.12"/>
            <lane id="2c_3" queueing_time="15.00" queueing_length="41.03" queueing_length_experimental="41.03"/>
            <lane id="3c_4" queueing_time="25.00" queueing_length="76.03" queueing_length_experimental="350.71"/>
            <lane id="4c_3" queueing_time="0.00" queueing_length="0.00" queueing_length_experimental="202.18"/>
            <lane id="4c_4" queueing_time="13.00" queueing_length="18.01" queueing_length_experimental="25.10"/>
        </lanes>
    </data>
    <data timestep="65.00">
        <lanes>
            <lane id="1c_0" queueing_time="22.00" queueing_length="13.00" queueing_length_experimental="20.14"/>
            <lane id="1c_1" queueing_time="17.00" queueing_length="13.00" queueing_length_experimental="13.00"/>
            <lane id="1c_2" queueing_time="14.00" queueing_length="6.00" queueing_length_experimental="6.00"/>
            <lane id="1c_3" queueing_time="10.00" queueing_length="6.00" queueing_length_experimental="6.00"/>
            <lane id="2c_1" queueing_time="25.00" queueing_length="55.01" queueing_length_experimental="62.09"/>
            <lane id="2c_2" queueing_time="17.00" queueing_length="48.06" queueing_length_experimental="48.06"/>
            <lane id="2c_3" queueing_time="16.00" queueing_length="41.02" queueing_length_experimental="41.02"/>
            <lane id="3c_3" queueing_time="1.00" queueing_length="470.20" queueing_length_experimental="0.00"/>
            <lane id="3c_4" queueing_time="26.00" queueing_length="83.09" queueing_length_experimental="358.48"/>
            <lane id="4c_4" queueing_time="14.00" queueing_length="25.03" queueing_length_experimental="32.14"/>
        </lanes>
    </data>
    <data timestep="66.00">
        <lanes>
            <lane id="1c_0" queueing_time="23.00" queueing_length="13.00" queueing_length_experimental="20.02"/>
            <lane id="1c_1" queueing_time="18.00" queueing_length="13.00" queueing_length_experimental="13.00"/>
            <lane id="1c_2" queueing_time="15.00" queueing_length="6.00" queueing_length_experimental="6.00"/>
            <lane id="1c_3" queueing_time="11.00" queueing_length="6.00" queueing_length_experimental="6.00"/>
            <lane id="2c_1" queueing_time="26.00" queueing_length="62.03" queueing_length_experimental="62.03"/>
            <lane id="2c_2" queueing_time="18.00" queueing_length="48.01" queueing_length_experimental="69.28"/>
            <lane id="2c_3" queueing_time="17.00" queueing_length="41.01" queueing_length_experimental="41.01"/>
            <lane id="3c_1" queueing_time="1.00" queueing_length="474.94" queueing_length_experimental="0.00"/>
            <lane id="3c_2" queueing_time="1.00" queueing_length="479.89" queueing_length_experimental="0.00"/>