<?xml version="1.0" encoding="UTF-8"?>

<!-- generated on 2024-06-11 12:49:56 by Eclipse SUMO sumo Version 1.20.0
<configuration xmlns:xsi="http://www.w3.org/2001/XMLSchema-instance" xsi:noNamespaceSchemaLocation="http://sumo.dlr.de/xsd/sumoConfiguration.xsd">

    <input>
        <net-file value="config/cross.net.xml"/>
        <route-files value="config/cross.rou.xml"/>
        <additional-files value="config/cross.det.xml"/>
    </input>

    <output>
        <queue-output value="queueinfo.xml"/>
        <tripinfo-output value="tripinfo.xml"/>
    </output>

    <time>
        <begin value="0"/>
    </time>

    <report>
        <verbose value="true"/>
        <no-step-log value="true"/>
    </report>

    <traci_server>
        <remote-port value="62766"/>
    </traci_server>

</configuration>
-->

<queue-export xmlns:xsi="http://www.w3.org/2001/XMLSchema-instance" xsi:noNamespaceSchemaLocation="http://sumo.dlr.de/xsd/queue_file.xsd">
    <data timestep="0.00">
        <lanes/>
    </data>
    <data timestep="1.00">
        <lanes/>
    </data>
    <data timestep="2.00">
        <lanes/>
    </data>
    <data timestep="3.00">
        <lanes/>
    </data>
    <data timestep="4.00">
        <lanes/>
    </data>
    <data timestep="5.00">
        <lanes/>
    </data>
    <data timestep="6.00">
        <lanes/>
    </data>
    <data timestep="7.00">
        <lanes>
            <lane id="3c_1" queueing_time="1.00" queueing_length="479.84" queueing_length_experimental="0.00"/>
        </lanes>
    </data>
    <data timestep="8.00">
        <lanes/>
    </data>
    <data timestep="9.00">
        <lanes/>
    </data>
    <data timestep="10.00">
        <lanes/>
    </data>
    <data timestep="11.00">
        <lanes/>
    </data>
    <data timestep="12.00">
        <lanes/>
    </data>
    <data timestep="13.00">
        <lanes/>
    </data>
    <data timestep="14.00">
        <lanes/>
    </data>
    <data timestep="15.00">
        <lanes/>
    </data>
    <data timestep="16.00">
        <lanes/>
    </data>
    <data timestep="17.00">
        <lanes/>
    </data>
    <data timestep="18.00">
        <lanes/>
    </data>
    <data timestep="19.00">
        <lanes/>
    </data>
    <data timestep="20.00">
        <lanes/>
    </data>
    <data timestep="21.00">
        <lanes/>
    </data>
    <data timestep="22.00">
        <lanes/>
    </data>
    <data timestep="23.00">
        <lanes/>
    </data>
    <data timestep="24.00">
        <lanes/>
    </data>
    <data timestep="25.00">
        <lanes/>
    </data>
    <data timestep="26.00">
        <lanes>
            <lane id="3c_3" queueing_time="1.00" queueing_length="440.78" queueing_length_experimental="0.00"/>
        </lanes>
    </data>
    <data timestep="27.00">
        <lanes>
            <lane id="4c_2" queueing_time="1.00" queueing_length="455.88" queueing_length_experimental="0.00"/>
        </lanes>
    </data>
    <data timestep="28.00">
        <lanes/>
    </data>
    <data timestep="29.00">
        <lanes/>
    </data>
    <data timestep="30.00">
        <lanes/>
    </data>
    <data timestep="31.00">
        <lanes/>
    </data>
    <data timestep="32.00">
        <lanes>
            <lane id="3c_3" queueing_time="1.00" queueing_length="423.03" queueing_length_experimental="0.00"/>
            <lane id="4c_3" queueing_time="1.00" queueing_length="408.35" queueing_length_experimental="0.00"/>
        </lanes>
    </data>
    <data timestep="33.00">
        <lanes>
            <lane id="4c_3" queueing_time="0.00" queueing_length="0.00" queueing_length_experimental="352.94"/>
        </lanes>
    </data>
    <data timestep="34.00">
        <lanes>
            <lane id="4c_3" queueing_time="0.00" queueing_length="0.00" queueing_length_experimental="360.71"/>
        </lanes>
    </data>
    <data timestep="35.00">
        <lanes/>
    </data>
    <data timestep="36.00">
        <lanes>
            <lane id="3c_4" queueing_time="1.00" queueing_length="329.85" queueing_length_experimental="329.85"/>
        </lanes>
    </data>
    <data timestep="37.00">
        <lanes>
            <lane id="3c_3" queueing_time="0.00" queueing_length="0.00" queueing_length_experimental="166.64"/>
            <lane id="3c_4" queueing_time="0.00" queueing_length="0.00" queueing_length_experimental="336.95"/>
        </lanes>
    </data>
    <data timestep="38.00">
        <lanes>
            <lane id="3c_2" queueing_time="1.00" queueing_length="468.31" queueing_length_experimental="0.00"/>
            <lane id="3c_3" queueing_time="0.00" queueing_length="0.00" queueing_length_experimental="290.39"/>
            <lane id="4c_3" queueing_time="1.00" queueing_length="467.59" queueing_length_experimental="0.00"/>
        </lanes>
    </data>
    <data timestep="39.00">
        <lanes>
            <lane id="1c_0" queueing_time="0.00" queueing_length="0.00" queueing_length_experimental="6.33"/>
            <lane id="3c_2" queueing_time="1.00" queueing_length="475.32" queueing_length_experimental="0.00"/>
        </lanes>
    </data>
    <data timestep="40.00">
        <lanes>
            <lane id="1c_0" queueing_time="0.00" queueing_length="0.00" queueing_length_experimental="6.11"/>
            <lane id="2c_1" queueing_time="0.00" queueing_length="0.00" queueing_length_experimental="6.04"/>
        </lanes>
    </data>
    <data timestep="41.00">
        <lanes>
            <lane id="1c_0" queueing_time="1.00" queueing_length="6.03" queueing_length_experimental="6.03"/>
            <lane id="2c_1" queueing_time="1.00" queueing_length="6.01" queueing_length_experimental="13.39"/>
        </lanes>
    </data>
    <data timestep="42.00">
        <lanes>
            <lane id="1c_0" queueing_time="2.00" queueing_length="6.01" queueing_length_experimental="6.01"/>
            <lane id="2c_1" queueing_time="2.00" queueing_length="6.00" queueing_length_experimental="13.19"/>
            <lane id="2c_2" queueing_time="0.00" queueing_length="0.00" queueing_length_experimental="6.38"/>
            <lane id="3c_3" queueing_time="1.00" queueing_length="156.02" queueing_length_experimental="156.02"/>
        </lanes>
    </data>
    <data timestep="43.00">
        <lanes>
            <lane id="1c_0" queueing_time="3.00" queueing_length="6.00" queueing_length_experimental="6.00"/>
            <lane id="2c_1" queueing_time="3.00" queueing_length="6.00" queueing_length_experimental="13.06"/>
            <lane id="2c_2" queueing_time="0.00" queueing_length="0.00" queueing_length_experimental="6.19"/>
            <lane id="2c_3" queueing_time="0.00" queueing_length="0.00" queueing_length_experimental="6.08"/>
            <lane id="3c_3" queueing_time="2.00" queueing_length="156.02" queueing_length_experimental="156.02"/>
        </lanes>
    </data>
    <data timestep="44.00">
        <lanes>
            <lane id="1c_0" queueing_time="4.00" queueing_length="6.00" queueing_length_experimental="6.00"/>
            <lane id="2c_1" queueing_time="4.00" queueing_length="13.03" queueing_length_experimental="13.03"/>
            <lane id="2c_2" queueing_time="0.00" queueing_length="0.00" queueing_length_experimental="6.07"/>
            <lane id="2c_3" queueing_time="1.00" queueing_length="479.81" queueing_length_experimental="6.02"/>
            <lane id="3c_3" queueing_time="0.00" queueing_length="0.00" queueing_length_experimental="163.03"/>
        </lanes>
    </data>
    <data timestep="45.00">
        <lanes>
            <lane id="1c_0" queueing_time="5.00" queueing_length="6.00" queueing_length_experimental="6.00"/>
            <lane id="2c_1" queueing_time="5.00" queueing_length="13.00" queueing_length_experimental="13.00"/>
            <lane id="2c_2" queueing_time="1.00" queueing_length="6.03" queueing_length_experimental="6.03"/>
            <lane id="2c_3" queueing_time="2.00" queueing_length="6.01" queueing_length_experimental="6.01"/>
            <lane id="4c_4" queueing_time="1.00" queueing_length="324.59" queueing_length_experimental="324.59"/>
        </lanes>
    </data>
    <data timestep="46.00">
        <lanes>
            <lane id="1c_0" queueing_time="6.00" queueing_length="6.00" queueing_length_experimental="6.00"/>
            <lane id="2c_1" queueing_time="6.00" queueing_length="13.00" queueing_length_experimental="13.00"/>
            <lane id="2c_2" queueing_time="2.00" queueing_length="6.01" queueing_length_experimental="6.01"/>
            <lane id="2c_3" queueing_time="3.00" queueing_length="6.00" queueing_length_experimental="6.00"/>
            <lane id="3c_4" queueing_time="1.00" queueing_length="286.46" queueing_length_experimental="286.46"/>
            <lane id="4c_3" queueing_time="0.00" queueing_length="0.00" queueing_length_experimental="155.09"/>
        </lanes>
    </data>
    <data timestep="47.00">
        <lanes>
            <lane id="1c_0" queueing_time="7.00" queueing_length="6.00" queueing_length_experimental="6.00"/>
            <lane id="2c_1" queueing_time="7.00" queueing_length="13.00" queueing_length_experimental="13.00"/>
            <lane id="2c_2" queueing_time="3.00" queueing_length="6.00" queueing_length_experimental="6.00"/>
            <lane id="2c_3" queueing_time="4.00" queueing_length="6.00" queueing_length_experimental="6.00"/>
            <lane id="3c_4" queueing_time="0.00" queueing_length="0.00" queueing_length_experimental="14.23"/>
            <lane id="4c_3" queueing_time="0.00" queueing_length="0.00" queueing_length_experimental="162.27"/>
        </lanes>
    </data>
    <data timestep="48.00">
        <lanes>
            <lane id="1c_0" queueing_time="8.00" queueing_length="6.00" queueing_length_experimental="6.00"/>
            <lane id="1c_1" queueing_time="0.00" queueing_length="0.00" queueing_length_experimental="6.53"/>
            <lane id="2c_1" queueing_time="8.00" queueing_length="13.00" queueing_length_experimental="13.00"/>
            <lane id="2c_2" queueing_time="4.00" queueing_length="6.00" queueing_length_experimental="6.00"/>
            <lane id="2c_3" queueing_time="5.00" queueing_length="6.00" queueing_length_experimental="6.00"/>
            <lane id="3c_4" queueing_time="0.00" queueing_length="0.00" queueing_length_experimental="337.27"/>
        </lanes>
    </data>
    <data timestep="49.00">
        <lanes>
            <lane id="1c_0" queueing_time="9.00" queueing_length="6.00" queueing_length_experimental="6.00"/>
            <lane id="1c_1" queueing_time="0.00" queueing_length="0.00" queueing_length_experimental="6.23"/>
            <lane id="2c_1" queueing_time="9.00" queueing_length="13.00" queueing_length_experimental="13.00"/>
            <lane id="2c_2" queueing_time="5.00" queueing_length="6.00" queueing_length_experimental="6.00"/>
            <lane id="2c_3" queueing_time="6.00" queueing_length="6.00" queueing_length_experimental="6.00"/>
            <lane id="3c_4" queueing_time="1.00" queueing_length="6.01" queueing_length_experimental="21.46"/>
        </lanes>
    </data>
    <data timestep="50.00">
        <lanes>
            <lane id="1c_0" queueing_time="10.00" queueing_length="6.00" queueing_length_experimental="6.00"/>
            <lane id="1c_1" queueing_time="0.00" queueing_length="0.00" queueing_length_experimental="6.04"/>
            <lane id="2c_1" queueing_time="10.00" queueing_length="13.00" queueing_length_experimental="13.00"/>
            <lane id="2c_2" queueing_time="6.00" queueing_length="6.00" queueing_length_experimental="6.00"/>
            <lane id="2c_3" queueing_time="7.00" queueing_length="6.00" queueing_length_experimental="6.00"/>
            <lane id="3c_4" queueing_time="2.00" queueing_length="13.04" queueing_length_experimental="20.34"/>
        </lanes>
    </data>
    <data timestep="51.00">
        <lanes>
            <lane id="1c_0" queueing_time="11.00" queueing_length="6.00" queueing_length_experimental="6.00"/>
            <lane id="1c_1" queueing_time="1.00" queueing_length="6.00" queueing_length_experimental="6.00"/>
            <lane id="2c_1" queueing_time="11.00" queueing_length="13.00" queueing_length_experimental="13.00"/>
            <lane id="2c_2" queueing_time="7.00" queueing_length="6.00" queueing_length_experimental="6.00"/>
            <lane id="2c_3" queueing_time="8.00" queueing_length="6.00" queueing_length_experimental="6.00"/>
            <lane id="3c_4" queueing_time="3.00" queueing_length="282.50" queueing_length_experimental="282.50"/>
            <lane id="4c_3" queueing_time="0.00" queueing_length="0.00" queueing_length_experimental="133.02"/>
        </lanes>
    </data>
    <data timestep="52.00">
        <lanes>
            <lane id="1c_0" queueing_time="12.00" queueing_length="6.00" queueing_length_experimental="6.00"/>
            <lane id="1c_1" queueing_time="2.00" queueing_length="6.00" queueing_length_experimental="6.00"/>
            <lane id="2c_1" queueing_time="12.00" queueing_length="13.00" queueing_length_experimental="13.00"/>
            <lane id="2c_2" queueing_time="8.00" queueing_length="6.00" queueing_length_experimental="6.00"/>
            <lane id="2c_3" queueing_time="9.00" queueing_length="6.00" queueing_length_experimental="6.00"/>
            <lane id="3c_4" queueing_time="4.00" queueing_length="282.50" queueing_length_experimental="290.48"/>
        </lanes>
    </data>
    <data timestep="53.00">
        <lanes>
            <lane id="1c_0" queueing_time="13.00" queueing_length="6.00" queueing_length_experimental="6.00"/>
            <lane id="1c_1" queueing_time="3.00" queueing_length="6.00" queueing_length_experimental="6.00"/>
            <lane id="2c_1" queueing_time="13.00" queueing_length="13.00" queueing_length_experimental="13.00"/>
            <lane id="2c_2" queueing_time="9.00" queueing_length="6.00" queueing_length_experimental="6.00"/>
            <lane id="2c_3" queueing_time="10.00" queueing_length="6.00" queueing_length_experimental="6.00"/>
            <lane id="3c_3" queueing_time="1.00" queueing_length="398.00" queueing_length_experimental="0.00"/>
            <lane id="3c_4" queueing_time="5.00" queueing_length="20.01" queueing_length_experimental="289.58"/>
            <lane id="4c_4" queueing_time="0.00" queueing_length="0.00" queueing_length_experimental="6.55"/>
        </lanes>
    </data>
    <data timestep="54.00">
        <lanes>
            <lane id="1c_0" queueing_time="14.00" queueing_length="6.00" queueing_length_experimental="6.00"/>
            <lane id="1c_1" queueing_time="4.00" queueing_length="6.00" queueing_length_experimental="6.00"/>
            <lane id="2c_1" queueing_time="14.00" queueing_length="13.00" queueing_length_experimental="13.00"/>
            <lane id="2c_2" queueing_time="10.00" queueing_length="6.00" queueing_length_experimental="6.00"/>
            <lane id="2c_3" queueing_time="11.00" queueing_length="6.00" queueing_length_experimental="6.00"/>
            <lane id="3c_4" queueing_time="6.00" queueing_length="20.01" queueing_length_experimental="296.80"/>
            <lane id="4c_3" queueing_time="0.00" queueing_length="0.00" queueing_length_experimental="201.35"/>
            <lane id="4c_4" queueing_time="0.00" queueing_length="0.00" queueing_length_experimental="6.01"/>
        </lanes>
    </data>
    <data timestep="55.00">
        <lanes>
            <lane id="1c_0" queueing_time="15.00" queueing_length="6.00" queueing_length_experimental="6.00"/>
            <lane id="1c_1" queueing_time="5.00" queueing_length="6.00" queueing_length_experimental="6.00"/>
            <lane id="2c_1" queueing_time="15.00" queueing_length="13.00" queueing_length_experimental="13.00"/>
            <lane id="2c_2" queueing_time="11.00" queueing_length="6.00" queueing_length_experimental="6.00"/>
            <lane id="2c_3" queueing_time="12.00" queueing_length="6.00" queueing_length_experimental="6.00"/>
            <lane id="3c_4" queueing_time="7.00" queueing_length="20.00" queueing_length_experimental="295.53"/>
            <lane id="4c_3" queueing_time="0.00" queueing_length="0.00" queueing_length_experimental="200.90"/>
            <lane id="4c_4" queueing_time="1.00" queueing_length="6.00" queueing_length_experimental="6.00"/>
        </lanes>
    </data>
    <data timestep="56.00">
        <lanes>
            <lane id="1c_0" queueing_time="16.00" queueing_length="6.00" queueing_length_experimental="13.03"/>
            <lane id="1c_1" queueing_time="6.00" queueing_length="6.00" queueing_length_experimental="6.00"/>
            <lane id="1c_2" queueing_time="0.00" queueing_length="0.00" queueing_length_experimental="6.20"/>
            <lane id="2c_1" queueing_time="16.00" queueing_length="13.00" queueing_length_experimental="13.00"/>
            <lane id="2c_2" queueing_time="12.00" queueing_length="6.00" queueing_length_experimental="6.00"/>
            <lane id="2c_3" queueing_time="13.00" queueing_length="6.00" queueing_length_experimental="13.11"/>
            <lane id="3c_4" queueing_time="8.00" queueing_length="20.00" queueing_length_experimental="20.00"/>
            <lane id="4c_4" queueing_time="2.00" queueing_length="6.00" queueing_length_experimental="6.00"/>
        </lanes>
    </data>
    <data timestep="57.00">
        <lanes>
            <lane id="1c_0" queueing_time="17.00" queueing_length="13.01" queueing_length_experimental="13.01"/>
            <lane id="1c_1" queueing_time="7.00" queueing_length="6.00" queueing_length_experimental="6.00"/>
            <lane id="1c_2" queueing_time="0.00" queueing_length="0.00" queueing_length_experimental="6.09"/>
            <lane id="2c_1" queueing_time="17.00" queueing_length="13.00" queueing_length_experimental="13.00"/>
            <lane id="2c_2" queueing_time="13.00" queueing_length="6.00" queueing_length_experimental="6.00"/>
            <lane id="2c_3" queueing_time="14.00" queueing_length="6.00" queueing_length_experimental="13.01"/>
            <lane id="3c_4" queueing_time="9.00" queueing_length="20.00" queueing_length_experimental="20.00"/>
            <lane id="4c_4" queueing_time="3.00" queueing_length="6.00" queueing_length_experimental="6.00"/>
        </lanes>
    </data>
    <data timestep="58.00">
        <lanes>
            <lane id="1c_0" queueing_time="18.00" queueing_length="13.01" queueing_length_experimental="13.01"/>
            <lane id="1c_1" queueing_time="8.00" queueing_length="6.00" queueing_length_experimental="6.00"/>
            <lane id="1c_2" queueing_time="1.00" queueing_length="6.01" queueing_length_experimental="6.01"/>
            <lane id="2c_1" queueing_time="18.00" queueing_length="13.00" queueing_length_experimental="20.03"/>
            <lane id="2c_2" queueing_time="14.00" queueing_length="6.00" queueing_length_experimental="13.04"/>
            <lane id="2c_3" queueing_time="15.00" queueing_length="13.00" queueing_length_experimental="13.00"/>
            <lane id="3c_2" queueing_time="0.00" queueing_length="0.00" queueing_length_experimental="6.10"/>
            <lane id="3c_3" queueing_time="1.00" queueing_length="182.42" queueing_length_experimental="182.42"/>
            <lane id="3c_4" queueing_time="10.00" queueing_length="464.65" queueing_length_experimental="20.00"/>
            <lane id="4c_4" queueing_time="4.00" queueing_length="479.83" queueing_length_experimental="6.00"/>
        </lanes>
    </data>
    <data timestep="59.00">
        <lanes>
            <lane id="1c_0" queueing_time="19.00" queueing_length="13.00" queueing_length_experimental="13.00"/>
            <lane id="1c_1" queueing_time="9.00" queueing_length="6.00" queueing_length_experimental="6.00"/>
            <lane id="1c_2" queueing_time="2.00" queueing_length="6.00" queueing_length_experimental="6.00"/>
            <lane id="2c_1" queueing_time="19.00" queueing_length="20.01" queueing_length_experimental="20.01"/>
            <lane id="2c_2" queueing_time="15.00" queueing_length="13.01" queueing_length_experimental="13.01"/>
            <lane id="2c_3" queueing_time="16.00" queueing_length="13.00" queueing_length_experimental="13.00"/>
            <lane id="3c_2" queueing_time="1.00" queueing_length="6.05" queueing_length_experimental="6.05"/>
            <lane id="3c_3" queueing_time="0.00" queueing_length="0.00" queueing_length_experimental="189.46"/>
            <lane id="3c_4" queueing_time="11.00" queueing_length="20.00" queueing_length_experimental="27.28"/>
            <lane id="4c_1" queueing_time="0.00" queueing_length="0.00" queueing_length_experimental="6.23"/>
            <lane id="4c_2" queueing_time="0.00" queueing_length="0.00" queueing_length_experimental="6.01"/>
            <lane id="4c_4" queueing_time="5.00" queueing_length="6.00" queueing_length_experimental="6.00"/>
        </lanes>
    </data>
    <data timestep="60.00">
        <lanes>
            <lane id="1c_0" queueing_time="20.00" queueing_length="13.00" queueing_length_experimental="13.00"/>
            <lane id="1c_1" queueing_time="10.00" queueing_length="6.00" queueing_length_experimental="6.00"/>
            <lane id="1c_2" queueing_time="3.00" queueing_length="6.00" queueing_length_experimental="6.00"/>
            <lane id="2c_1" queueing_time="20.00" queueing_length="20.01" queueing_length_experimental="20.01"/>
            <lane id="2c_2" queueing_time="16.00" queueing_length="13.00" queueing_length_experimental="13.00"/>
            <lane id="2c_3" queueing_time="17.00" queueing_length="13.00" queueing_length_experimental="13.00"/>
            <lane id="3c_0" queueing_time="0.00" queueing_length="0.00" queueing_length_experimental="6.09"/>
            <lane id="3c_2" queueing_time="2.00" queueing_length="6.01" queueing_length_experimental="6.01"/>
            <lane id="3c_3" queueing_time="0.00" queueing_length="0.00" queueing_length_experimental="13.47"/>
            <lane id="3c_4" queueing_time="11.00" queueing_length="479.90" queueing_length_experimental="35.13"/>
            <lane id="4c_1" queueing_time="0.00" queueing_length="0.00" queueing_length_experimental="6.02"/>
            <lane id="4c_2" queueing_time="1.00" queueing_length="6.00" queueing_length_experimental="14.13"/>
        </lanes>
    </data>
    <data timestep="61.00">
        <lanes>
            <lane id="1c_0" queueing_time="21.00" queueing_length="13.00" queueing_length_experimental="13.00"/>
            <lane id="1c_1" queueing_time="11.00" queueing_length="6.00" queueing_length_experimental="6.00"/>
            <lane id="1c_2" queueing_time="4.00" queueing_length="6.00" queueing_length_experimental="6.00"/>
            <lane id="2c_1" queueing_time="21.00" queueing_length="20.00" queueing_length_experimental="20.00"/>
            <lane id="2c_2" queueing_time="17.00" queueing_length="13.00" queueing_length_experimental="13.00"/>
            <lane id="2c_3" queueing_time="18.00" queueing_length="13.00" queueing_length_experimental="13.00"/>
            <lane id="3c_0" queueing_time="1.00" queueing_length="6.04" queueing_length_experimental="6.04"/>
            <lane id="3c_1" queueing_time="0.00" queueing_length="0.00" queueing_length_experimental="6.33"/>
            <lane id="3c_2" queueing_time="3.00" queueing_length="468.25" queueing_length_experimental="6.00"/>
            <lane id="3c_3" queueing_time="1.00" queueing_length="6.04" queueing_length_experimental="13.27"/>
            <lane id="3c_4" queueing_time="10.00" queueing_length="27.04" queueing_length_experimental="34.17"/>
            <lane id="4c_1" queueing_time="1.00" queueing_length="6.01" queueing_length_experimental="266.58"/>
            <lane id="4c_2" queueing_time="2.00" queueing_length="6.00" queueing_length_experimental="13.47"/>
            <lane id="4c_3" queueing_time="0.00" queueing_length="0.00" queueing_length_experimental="6.29"/>
        </lanes>
    </data>
    <data timestep="62.00">
        <lanes>
            <lane id="1c_0" queueing_time="22.00" queueing_length="13.00" queueing_length_experimental="13.00"/>
            <lane id="1c_1" queueing_time="12.00" queueing_length="6.00" queueing_length_experimental="6.00"/>
            <lane id="1c_2" queueing_time="5.00" queueing_length="6.00" queueing_length_experimental="6.00"/>
            <lane id="2c_1" queueing_time="22.00" queueing_length="20.00" queueing_length_experimental="20.00"/>
            <lane id="2c_2" queueing_time="18.00" queueing_length="13.00" queueing_length_experimental="13.00"/>
            <lane id="2c_3" queueing_time="19.00" queueing_length="13.00" queueing_length_experimental="13.00"/>
            <lane id="3c_0" queueing_time="2.00" queueing_length="6.00" queueing_length_experimental="6.00"/>
            <lane id="3c_1" queueing_time="0.00" queueing_length="0.00" queueing_length_experimental="6.05"/>
            <lane id="3c_2" queueing_time="4.00" queueing_length="6.00" queueing_length_experimental="13.10"/>
            <lane id="3c_3" queueing_time="2.00" queueing_length="6.02" queueing_length_experimental="13.15"/>
            <lane id="3c_4" queueing_time="2.00" queueing_length="27.01" queueing_length_experimental="34.04"/>
            <lane id="4c_0" queueing_time="0.00" queueing_length="0.00" queueing_length_experimental="6.11"/>
            <lane id="4c_1" queueing_time="2.00" queueing_length="6.00" queueing_length_experimental="13.27"/>
            <lane id="4c_2" queueing_time="3.00" queueing_length="6.00" queueing_length_experimental="13.22"/>
            <lane id="4c_3" queueing_time="0.00" queueing_length="0.00" queueing_length_experimental="6.01"/>
        </lanes>
    </data>
    <data timestep="63.00">
        <lanes>
            <lane id="1c_0" queueing_time="23.00" queueing_length="13.00" queueing_length_experimental="13.00"/>
            <lane id="1c_1" queueing_time="13.00" queueing_length="6.00" queueing_length_experimental="6.00"/>
            <lane id="1c_2" queueing_time="6.00" queueing_length="6.00" queueing_length_experimental="6.00"/>
            <lane id="2c_1" queueing_time="23.00" queueing_length="20.00" queueing_length_experimental="20.00"/>
            <lane id="2c_2" queueing_time="19.00" queueing_length="13.00" queueing_length_experimental="20.13"/>
            <lane id="2c_3" queueing_time="20.00" queueing_length="13.00" queueing_length_experimental="13.00"/>
            <lane id="3c_0" queueing_time="3.00" queueing_length="6.00" queueing_length_experimental="6.00"/>
            <lane id="3c_1" queueing_time="1.00" queueing_length="6.00" queueing_length_experimental="6.00"/>
            <lane id="3c_2" queueing_time="5.00" queueing_length="13.01" queueing_length_experimental="13.01"/>
            <lane id="3c_3" queueing_time="3.00" queueing_length="6.00" queueing_length_experimental="20.19"/>
            <lane id="3c_4" queueing_time="1.00" queueing_length="34.01" queueing_length_experimental="360.72"/>
            <lane id="4c_0" queueing_time="1.00" queueing_length="6.03" queueing_length_experimental="6.03"/>
            <lane id="4c_1" queueing_time="3.00" queueing_length="6.00" queueing_length_experimental="13.09"/>
            <lane id="4c_2" queueing_time="4.00" queueing_length="6.00" queueing_length_experimental="13.06"/>
            <lane id="4c_3" queueing_time="1.00" queueing_length="6.00" queueing_length_experimental="13.58"/>
        </lanes>
    </data>
    <data timestep="64.00">
        <lanes>
            <lane id="1c_0" queueing_time="24.00" queueing_length="13.00" queueing_length_experimental="13.00"/>
            <lane id="1c_1" queueing_time="14.00" queueing_length="6.00" queueing_length_experimental="6.00"/>
            <lane id="1c_2" queueing_time="7.00" queueing_length="6.00" queueing_length_experimental="6.00"/>
            <lane id="2c_1" queueing_time="24.00" queueing_length="20.00" queueing_length_experimental="27.17"/>
            <lane id="2c_2" queueing_time="20.00" queueing_length="20.04" queueing_length_experimental="20.04"/>
            <lane id="2c_3" queueing_time="21.00" queueing_length="13.00" queueing_length_experimental="13.00"/>
            <lane id="3c_1" queueing_time="1.00" queueing_length="477.80" queueing_length_experimental="0.00"/>
            <lane id="3c_2" queueing_time="2.00" queueing_length="13.00" queueing_length_experimental="13.00"/>
            <lane id="3c_3" queueing_time="1.00" queueing_length="13.00" queueing_length_experimental="35.42"/>
            <lane id="3c_4" queueing_time="0.00" queueing_length="0.00" queueing_length_experimental="272.12"/>
            <lane id="4c_0" queueing_time="0.00" queueing_length="0.00" queueing_length_experimental="21.30"/>
            <lane id="4c_1" queueing_time="1.00" queueing_length="13.03" queueing_length_experimental="13.03"/>
            <lane id="4c_2" queueing_time="1.00" queueing_length="13.01" queueing_length_experimental="20.14"/>
            <lane id="4c_3" queueing_time="0.00" queueing_length="0.00" queueing_length_experimental="13.13"/>
        </lanes>
    </data>
    <data timestep="65.00">
        <lanes>
            <lane id="1c_0" queueing_time="25.00" queueing_length="13.00" queueing_length_experimental="13.00"/>
            <lane id="1c_1" queueing_time="15.00" queueing_length="6.00" queueing_length_experimental="6.00"/>
            <lane id="1c_2" queueing_time="8.00" queueing_length="6.00" queueing_length_experimental="6.00"/>
            <lane id="2c_1" queueing_time="25.00" queueing_length="27.08" queueing_length_experimental="27.08"/>
            <lane id="2c_2" queueing_time="21.00" queueing_length="20.01" queueing_length_experimental="20.01"/>
            <lane id="2c_3" queueing_time="22.00" queueing_length="13.00" queueing_length_experimental="20.08"/>
            <lane id="3c_2" queueing_time="0.00" queueing_length="0.00" queueing_length_experimental="20.03"/>
            <lane id="3c_3" queueing_time="1.00" queueing_length="20.02" queueing_length_experimental="34.53"/>
            <lane id="3c_4" queueing_time="0.00" queueing_length="0.00" queueing_length_experimental="48.12"/>