<?xml version="1.0" encoding="UTF-8"?>

<!-- generated on 2024-06-10 00:33:18 by Eclipse SUMO GUI Version 1.20.0
<configuration xmlns:xsi="http://www.w3.org/2001/XMLSchema-instance" xsi:noNamespaceSchemaLocation="http://sumo.dlr.de/xsd/sumoConfiguration.xsd">

    <input>
        <net-file value="config/cross.net.xml"/>
        <route-files value="config/cross.rou.xml"/>
        <additional-files value="config/cross.det.xml"/>
    </input>

    <output>
        <queue-output value="queueinfo.xml"/>
        <tripinfo-output value="tripinfo.xml"/>
    </output>

    <time>
        <begin value="0"/>
    </time>

    <report>
        <verbose value="true"/>
        <no-step-log value="true"/>
    </report>

    <traci_server>
        <remote-port value="62939"/>
    </traci_server>

</configuration>
-->

<queue-export xmlns:xsi="http://www.w3.org/2001/XMLSchema-instance" xsi:noNamespaceSchemaLocation="http://sumo.dlr.de/xsd/queue_file.xsd">
    <data timestep="0.00">
        <lanes/>
    </data>
    <data timestep="1.00">
        <lanes/>
    </data>
    <data timestep="2.00">
        <lanes/>
    </data>
    <data timestep="3.00">
        <lanes/>
    </data>
    <data timestep="4.00">
        <lanes/>
    </data>
    <data timestep="5.00">
        <lanes/>
    </data>
    <data timestep="6.00">
        <lanes/>
    </data>
    <data timestep="7.00">
        <lanes/>
    </data>
    <data timestep="8.00">
        <lanes/>
    </data>
    <data timestep="9.00">
        <lanes/>
    </data>
    <data timestep="10.00">
        <lanes/>
    </data>
    <data timestep="11.00">
        <lanes>
            <lane id="3c_3" queueing_time="1.00" queueing_length="419.13" queueing_length_experimental="0.00"/>
        </lanes>
    </data>
    <data timestep="12.00">
        <lanes/>
    </data>
    <data timestep="13.00">
        <lanes/>
    </data>
    <data timestep="14.00">
        <lanes/>
    </data>
    <data timestep="15.00">
        <lanes/>
    </data>
    <data timestep="16.00">
        <lanes/>
    </data>
    <data timestep="17.00">
        <lanes/>
    </data>
    <data timestep="18.00">
        <lanes/>
    </data>
    <data timestep="19.00">
        <lanes>
            <lane id="3c_2" queueing_time="1.00" queueing_length="462.73" queueing_length_experimental="0.00"/>
        </lanes>
    </data>
    <data timestep="20.00">
        <lanes/>
    </data>
    <data timestep="21.00">
        <lanes>
            <lane id="3c_2" queueing_time="1.00" queueing_length="419.68" queueing_length_experimental="0.00"/>
        </lanes>
    </data>
    <data timestep="22.00">
        <lanes>
            <lane id="3c_2" queueing_time="2.00" queueing_length="419.68" queueing_length_experimental="0.00"/>
            <lane id="3c_3" queueing_time="1.00" queueing_length="430.14" queueing_length_experimental="0.00"/>
        </lanes>
    </data>
    <data timestep="23.00">
        <lanes>
            <lane id="3c_2" queueing_time="1.00" queueing_length="479.88" queueing_length_experimental="0.00"/>
            <lane id="3c_3" queueing_time="2.00" queueing_length="430.14" queueing_length_experimental="0.00"/>
        </lanes>
    </data>
    <data timestep="24.00">
        <lanes>
            <lane id="3c_3" queueing_time="3.00" queueing_length="430.14" queueing_length_experimental="0.00"/>
        </lanes>
    </data>
    <data timestep="25.00">
        <lanes>
            <lane id="3c_3" queueing_time="4.00" queueing_length="430.14" queueing_length_experimental="0.00"/>
        </lanes>
    </data>
    <data timestep="26.00">
        <lanes>
            <lane id="3c_3" queueing_time="1.00" queueing_length="437.17" queueing_length_experimental="0.00"/>
        </lanes>
    </data>
    <data timestep="27.00">
        <lanes/>
    </data>
    <data timestep="28.00">
        <lanes>
            <lane id="3c_3" queueing_time="1.00" queueing_length="325.63" queueing_length_experimental="325.63"/>
        </lanes>
    </data>
    <data timestep="29.00">
        <lanes/>
    </data>
    <data timestep="30.00">
        <lanes/>
    </data>
    <data timestep="31.00">
        <lanes/>
    </data>
    <data timestep="32.00">
        <lanes>
            <lane id="3c_3" queueing_time="0.00" queueing_length="0.00" queueing_length_experimental="223.88"/>
            <lane id="3c_4" queueing_time="1.00" queueing_length="260.88" queueing_length_experimental="260.88"/>
        </lanes>
    </data>
    <data timestep="33.00">
        <lanes/>
    </data>
    <data timestep="34.00">
        <lanes/>
    </data>
    <data timestep="35.00">
        <lanes/>
    </data>
    <data timestep="36.00">
        <lanes/>
    </data>
    <data timestep="37.00">
        <lanes>
            <lane id="3c_3" queueing_time="1.00" queueing_length="357.77" queueing_length_experimental="357.77"/>
        </lanes>
    </data>
    <data timestep="38.00">
        <lanes>
            <lane id="3c_3" queueing_time="0.00" queueing_length="0.00" queueing_length_experimental="364.85"/>
        </lanes>
    </data>
    <data timestep="39.00">
        <lanes>
            <lane id="3c_4" queueing_time="0.00" queueing_length="0.00" queueing_length_experimental="6.68"/>
        </lanes>
    </data>
    <data timestep="40.00">
        <lanes>
            <lane id="1c_0" queueing_time="1.00" queueing_length="6.04" queueing_length_experimental="6.04"/>
            <lane id="3c_4" queueing_time="0.00" queueing_length="0.00" queueing_length_experimental="6.26"/>
        </lanes>
    </data>
    <data timestep="41.00">
        <lanes>
            <lane id="1c_0" queueing_time="2.00" queueing_length="6.02" queueing_length_experimental="6.02"/>
            <lane id="2c_1" queueing_time="1.00" queueing_length="6.00" queueing_length_experimental="6.00"/>
            <lane id="3c_4" queueing_time="0.00" queueing_length="0.00" queueing_length_experimental="6.01"/>
        </lanes>
    </data>
    <data timestep="42.00">
        <lanes>
            <lane id="1c_0" queueing_time="3.00" queueing_length="6.01" queueing_length_experimental="6.01"/>
            <lane id="2c_1" queueing_time="2.00" queueing_length="6.00" queueing_length_experimental="6.00"/>
            <lane id="3c_4" queueing_time="1.00" queueing_length="6.00" queueing_length_experimental="13.16"/>
        </lanes>
    </data>
    <data timestep="43.00">
        <lanes>
            <lane id="1c_0" queueing_time="4.00" queueing_length="6.00" queueing_length_experimental="6.00"/>
            <lane id="2c_1" queueing_time="3.00" queueing_length="6.00" queueing_length_experimental="6.00"/>
            <lane id="3c_1" queueing_time="1.00" queueing_length="479.87" queueing_length_experimental="0.00"/>
            <lane id="3c_4" queueing_time="2.00" queueing_length="6.00" queueing_length_experimental="13.02"/>
            <lane id="4c_4" queueing_time="0.00" queueing_length="0.00" queueing_length_experimental="6.97"/>
        </lanes>
    </data>
    <data timestep="44.00">
        <lanes>
            <lane id="1c_0" queueing_time="5.00" queueing_length="6.00" queueing_length_experimental="6.00"/>
            <lane id="2c_1" queueing_time="4.00" queueing_length="6.00" queueing_length_experimental="6.00"/>
            <lane id="2c_2" queueing_time="0.00" queueing_length="0.00" queueing_length_experimental="6.38"/>
            <lane id="3c_4" queueing_time="3.00" queueing_length="294.00" queueing_length_experimental="294.00"/>
            <lane id="4c_4" queueing_time="0.00" queueing_length="0.00" queueing_length_experimental="6.18"/>
        </lanes>
    </data>
    <data timestep="45.00">
        <lanes>
            <lane id="1c_0" queueing_time="6.00" queueing_length="6.00" queueing_length_experimental="6.00"/>
            <lane id="2c_1" queueing_time="5.00" queueing_length="6.00" queueing_length_experimental="13.30"/>
            <lane id="2c_2" queueing_time="0.00" queueing_length="0.00" queueing_length_experimental="6.07"/>
            <lane id="3c_1" queueing_time="1.00" queueing_length="476.74" queueing_length_experimental="0.00"/>
            <lane id="3c_4" queueing_time="4.00" queueing_length="13.00" queueing_length_experimental="301.10"/>
            <lane id="4c_3" queueing_time="1.00" queueing_length="404.01" queueing_length_experimental="0.00"/>
            <lane id="4c_4" queueing_time="1.00" queueing_length="6.08" queueing_length_experimental="6.08"/>
        </lanes>
    </data>
    <data timestep="46.00">
        <lanes>
            <lane id="1c_0" queueing_time="7.00" queueing_length="6.00" queueing_length_experimental="6.00"/>
            <lane id="2c_1" queueing_time="6.00" queueing_length="6.00" queueing_length_experimental="13.06"/>
            <lane id="2c_2" queueing_time="1.00" queueing_length="6.02" queueing_length_experimental="13.12"/>
            <lane id="2c_3" queueing_time="0.00" queueing_length="0.00" queueing_length_experimental="6.13"/>
            <lane id="3c_4" queueing_time="5.00" queueing_length="13.00" queueing_length_experimental="340.45"/>
            <lane id="4c_4" queueing_time="2.00" queueing_length="6.02" queueing_length_experimental="6.02"/>
        </lanes>
    </data>
    <data timestep="47.00">
        <lanes>
            <lane id="1c_0" queueing_time="8.00" queueing_length="6.00" queueing_length_experimental="6.00"/>
            <lane id="2c_1" queueing_time="7.00" queueing_length="13.02" queueing_length_experimental="13.02"/>
            <lane id="2c_2" queueing_time="2.00" queueing_length="13.05" queueing_length_experimental="13.05"/>
            <lane id="2c_3" queueing_time="1.00" queueing_length="6.03" queueing_length_experimental="6.03"/>
            <lane id="3c_3" queueing_time="0.00" queueing_length="0.00" queueing_length_experimental="322.54"/>
            <lane id="3c_4" queueing_time="6.00" queueing_length="13.00" queueing_length_experimental="20.04"/>
            <lane id="4c_4" queueing_time="3.00" queueing_length="13.11" queueing_length_experimental="327.71"/>
        </lanes>
    </data>
    <data timestep="48.00">
        <lanes>
            <lane id="1c_0" queueing_time="9.00" queueing_length="6.00" queueing_length_experimental="6.00"/>
            <lane id="2c_1" queueing_time="8.00" queueing_length="13.00" queueing_length_experimental="302.19"/>
            <lane id="2c_2" queueing_time="3.00" queueing_length="13.01" queueing_length_experimental="13.01"/>
            <lane id="2c_3" queueing_time="2.00" queueing_length="6.01" queueing_length_experimental="13.04"/>
            <lane id="3c_3" queueing_time="0.00" queueing_length="0.00" queueing_length_experimental="329.86"/>
            <lane id="3c_4" queueing_time="7.00" queueing_length="20.01" queueing_length_experimental="20.01"/>
            <lane id="4c_4" queueing_time="4.00" queueing_length="13.04" queueing_length_experimental="20.17"/>
        </lanes>
    </data>
    <data timestep="49.00">
        <lanes>
            <lane id="1c_0" queueing_time="10.00" queueing_length="6.00" queueing_length_experimental="6.00"/>
            <lane id="2c_1" queueing_time="9.00" queueing_length="13.00" queueing_length_experimental="301.68"/>
            <lane id="2c_2" queueing_time="4.00" queueing_length="13.01" queueing_length_experimental="13.01"/>
            <lane id="2c_3" queueing_time="3.00" queueing_length="13.02" queueing_length_experimental="13.02"/>
            <lane id="3c_4" queueing_time="8.00" queueing_length="20.01" queueing_length_experimental="20.01"/>
            <lane id="4c_4" queueing_time="5.00" queueing_length="13.02" queueing_length_experimental="20.05"/>
        </lanes>
    </data>
    <data timestep="50.00">
        <lanes>
            <lane id="1c_0" queueing_time="11.00" queueing_length="6.00" queueing_length_experimental="6.00"/>
            <lane id="1c_1" queueing_time="0.00" queueing_length="0.00" queueing_length_experimental="6.01"/>
            <lane id="2c_1" queueing_time="10.00" queueing_length="13.00" queueing_length_experimental="20.19"/>
            <lane id="2c_2" queueing_time="5.00" queueing_length="13.00" queueing_length_experimental="301.17"/>
            <lane id="2c_3" queueing_time="4.00" queueing_length="13.01" queueing_length_experimental="13.01"/>
            <lane id="3c_4" queueing_time="9.00" queueing_length="20.00" queueing_length_experimental="27.04"/>
            <lane id="4c_1" queueing_time="1.00" queueing_length="475.07" queueing_length_experimental="0.00"/>
            <lane id="4c_4" queueing_time="6.00" queueing_length="20.02" queueing_length_experimental="20.02"/>
        </lanes>
    </data>
    <data timestep="51.00">
        <lanes>
            <lane id="1c_0" queueing_time="12.00" queueing_length="6.00" queueing_length_experimental="6.00"/>
            <lane id="1c_1" queueing_time="1.00" queueing_length="6.01" queueing_length_experimental="6.01"/>
            <lane id="2c_1" queueing_time="11.00" queueing_length="13.00" queueing_length_experimental="20.06"/>
            <lane id="2c_2" queueing_time="6.00" queueing_length="13.00" queueing_length_experimental="20.84"/>
            <lane id="2c_3" queueing_time="5.00" queueing_length="13.00" queueing_length_experimental="20.16"/>
            <lane id="3c_4" queueing_time="10.00" queueing_length="27.02" queueing_length_experimental="180.73"/>
            <lane id="4c_4" queueing_time="7.00" queueing_length="20.01" queueing_length_experimental="27.65"/>
        </lanes>
    </data>
    <data timestep="52.00">
        <lanes>
            <lane id="1c_0" queueing_time="13.00" queueing_length="6.00" queueing_length_experimental="13.49"/>
            <lane id="1c_1" queueing_time="2.00" queueing_length="6.00" queueing_length_experimental="6.00"/>
            <lane id="2c_1" queueing_time="12.00" queueing_length="20.02" queueing_length_experimental="20.02"/>
            <lane id="2c_2" queueing_time="7.00" queueing_length="13.00" queueing_length_experimental="20.25"/>
            <lane id="2c_3" queueing_time="6.00" queueing_length="13.00" queueing_length_experimental="20.05"/>
            <lane id="3c_4" queueing_time="11.00" queueing_length="27.01" queueing_length_experimental="341.96"/>
            <lane id="4c_4" queueing_time="8.00" queueing_length="20.01" queueing_length_experimental="27.23"/>
        </lanes>
    </data>
    <data timestep="53.00">
        <lanes>
            <lane id="1c_0" queueing_time="14.00" queueing_length="6.00" queueing_length_experimental="13.22"/>
            <lane id="1c_1" queueing_time="3.00" queueing_length="6.00" queueing_length_experimental="6.00"/>
            <lane id="2c_1" queueing_time="13.00" queueing_length="20.01" queueing_length_experimental="20.01"/>
            <lane id="2c_2" queueing_time="8.00" queueing_length="13.00" queueing_length_experimental="20.06"/>
            <lane id="2c_3" queueing_time="7.00" queueing_length="20.03" queueing_length_experimental="20.03"/>
            <lane id="3c_4" queueing_time="12.00" queueing_length="27.01" queueing_length_experimental="195.12"/>
            <lane id="4c_4" queueing_time="9.00" queueing_length="20.00" queueing_length_experimental="27.09"/>
        </lanes>
    </data>
    <data timestep="54.00">
        <lanes>
            <lane id="1c_0" queueing_time="15.00" queueing_length="6.00" queueing_length_experimental="13.03"/>
            <lane id="1c_1" queueing_time="4.00" queueing_length="6.00" queueing_length_experimental="6.00"/>
            <lane id="1c_2" queueing_time="0.00" queueing_length="0.00" queueing_length_experimental="6.14"/>
            <lane id="2c_1" queueing_time="14.00" queueing_length="20.00" queueing_length_experimental="27.53"/>
            <lane id="2c_2" queueing_time="9.00" queueing_length="20.00" queueing_length_experimental="27.20"/>
            <lane id="2c_3" queueing_time="8.00" queueing_length="20.01" queueing_length_experimental="20.01"/>
            <lane id="3c_3" queueing_time="1.00" queueing_length="388.07" queueing_length_experimental="0.00"/>
            <lane id="3c_4" queueing_time="13.00" queueing_length="34.01" queueing_length_experimental="41.11"/>
            <lane id="4c_4" queueing_time="10.00" queueing_length="27.04" queueing_length_experimental="27.04"/>
        </lanes>
    </data>
    <data timestep="55.00">
        <lanes>
            <lane id="1c_0" queueing_time="16.00" queueing_length="13.00" queueing_length_experimental="13.00"/>
            <lane id="1c_1" queueing_time="5.00" queueing_length="6.00" queueing_length_experimental="6.00"/>
            <lane id="1c_2" queueing_time="1.00" queueing_length="6.04" queueing_length_experimental="6.04"/>
            <lane id="2c_1" queueing_time="15.00" queueing_length="20.00" queueing_length_experimental="27.24"/>
            <lane id="2c_2" queueing_time="10.00" queueing_length="20.00" queueing_length_experimental="27.07"/>
            <lane id="2c_3" queueing_time="9.00" queueing_length="20.00" queueing_length_experimental="27.07"/>
            <lane id="3c_4" queueing_time="14.00" queueing_length="357.61" queueing_length_experimental="357.61"/>
            <lane id="4c_4" queueing_time="11.00" queueing_length="27.01" queueing_length_experimental="27.01"/>
        </lanes>
    </data>
    <data timestep="56.00">
        <lanes>
            <lane id="1c_0" queueing_time="17.00" queueing_length="13.00" queueing_length_experimental="13.00"/>
            <lane id="1c_1" queueing_time="6.00" queueing_length="6.00" queueing_length_experimental="6.00"/>
            <lane id="1c_2" queueing_time="2.00" queueing_length="6.00" queueing_length_experimental="6.00"/>
            <lane id="2c_1" queueing_time="16.00" queueing_length="20.00" queueing_length_experimental="27.10"/>
            <lane id="2c_2" queueing_time="11.00" queueing_length="27.01" queueing_length_experimental="34.49"/>
            <lane id="2c_3" queueing_time="10.00" queueing_length="27.03" queueing_length_experimental="27.03"/>
            <lane id="3c_2" queueing_time="1.00" queueing_length="479.41" queueing_length_experimental="0.00"/>
            <lane id="3c_4" queueing_time="15.00" queueing_length="41.01" queueing_length_experimental="48.07"/>
            <lane id="4c_4" queueing_time="12.00" queueing_length="27.00" queueing_length_experimental="27.00"/>
        </lanes>
    </data>
    <data timestep="57.00">
        <lanes>
            <lane id="1c_0" queueing_time="18.00" queueing_length="13.00" queueing_length_experimental="13.00"/>
            <lane id="1c_1" queueing_time="7.00" queueing_length="6.00" queueing_length_experimental="6.00"/>
            <lane id="1c_2" queueing_time="3.00" queueing_length="6.00" queueing_length_experimental="6.00"/>
            <lane id="2c_1" queueing_time="17.00" queueing_length="27.03" queueing_length_experimental="27.03"/>
            <lane id="2c_2" queueing_time="12.00" queueing_length="27.00" queueing_length_experimental="34.01"/>
            <lane id="2c_3" queueing_time="11.00" queueing_length="27.02" queueing_length_experimental="34.45"/>
            <lane id="3c_0" queueing_time="1.00" queueing_length="479.88" queueing_length_experimental="0.00"/>
            <lane id="3c_3" queueing_time="0.00" queueing_length="0.00" queueing_length_experimental="157.83"/>
            <lane id="3c_4" queueing_time="16.00" queueing_length="48.02" queueing_length_experimental="60.17"/>
            <lane id="4c_4" queueing_time="13.00" queueing_length="27.00" queueing_length_experimental="27.00"/>
        </lanes>
    </data>
    <data timestep="58.00">
        <lanes>
            <lane id="1c_0" queueing_time="19.00" queueing_length="13.00" queueing_length_experimental="13.00"/>
            <lane id="1c_1" queueing_time="8.00" queueing_length="6.00" queueing_length_experimental="6.00"/>
            <lane id="1c_2" queueing_time="4.00" queueing_length="6.00" queueing_length_experimental="6.00"/>
            <lane id="2c_1" queueing_time="18.00" queueing_length="27.01" queueing_length_experimental="27.01"/>
            <lane id="2c_2" queueing_time="13.00" queueing_length="34.01" queueing_length_experimental="41.56"/>
            <lane id="2c_3" queueing_time="12.00" queueing_length="27.01" queueing_length_experimental="34.12"/>
            <lane id="3c_0" queueing_time="0.00" queueing_length="0.00" queueing_length_experimental="6.31"/>
            <lane id="3c_3" queueing_time="1.00" queueing_length="351.40" queueing_length_experimental="351.40"/>
            <lane id="3c_4" queueing_time="17.00" queueing_length="48.01" queueing_length_experimental="67.75"/>
            <lane id="4c_3" queueing_time="0.00" queueing_length="0.00" queueing_length_experimental="6.92"/>
            <lane id="4c_4" queueing_time="14.00" queueing_length="27.00" queueing_length_experimental="34.04"/>
        </lanes>
    </data>
    <data timestep="59.00">
        <lanes>
            <lane id="1c_0" queueing_time="20.00" queueing_length="13.00" queueing_length_experimental="20.57"/>
            <lane id="1c_1" queueing_time="9.00" queueing_length="6.00" queueing_length_experimental="6.00"/>
            <lane id="1c_2" queueing_time="5.00" queueing_length="6.00" queueing_length_experimental="6.00"/>
            <lane id="2c_1" queueing_time="19.00" queueing_length="27.00" queueing_length_experimental="27.00"/>
            <lane id="2c_2" queueing_time="14.00" queueing_length="34.01" queueing_length_experimental="49.30"/>
            <lane id="2c_3" queueing_time="13.00" queueing_length="27.00" queueing_length_experimental="34.01"/>
            <lane id="3c_0" queueing_time="0.00" queueing_length="0.00" queueing_length_experimental="6.01"/>
            <lane id="3c_3" queueing_time="0.00" queueing_length="0.00" queueing_length_experimental="358.67"/>
            <lane id="3c_4" queueing_time="18.00" queueing_length="60.02" queueing_length_experimental="319.05"/>
            <lane id="4c_0" queueing_time="1.00" queueing_length="6.04" queueing_length_experimental="6.04"/>
            <lane id="4c_1" queueing_time="0.00" queueing_length="0.00" queueing_length_experimental="6.04"/>
            <lane id="4c_2" queueing_time="0.00" queueing_length="0.00" queueing_length_experimental="6.02"/>
            <lane id="4c_3" queueing_time="0.00" queueing_length="0.00" queueing_length_experimental="6.18"/>
            <lane id="4c_4" queueing_time="15.00" queueing_length="34.02" queueing_length_experimental="34.02"/>
        </lanes>
    </data>
    <data timestep="60.00">
        <lanes>
            <lane id="1c_0" queueing_time="21.00" queueing_length="13.00" queueing_length_experimental="20.06"/>
            <lane id="1c_1" queueing_time="10.00" queueing_length="13.04" queueing_length_experimental="13.04"/>
            <lane id="1c_2" queueing_time="6.00" queueing_length="6.00" queueing_length_experimental="6.00"/>
            <lane id="2c_1" queueing_time="20.00" queueing_length="27.00" queueing_length_experimental="34.87"/>
            <lane id="2c_2" queueing_time="15.00" queueing_length="34.01" queueing_length_experimental="48.72"/>
            <lane id="2c_3" queueing_time="14.00" queueing_length="34.01" queueing_length_experimental="34.01"/>
            <lane id="3c_0" queueing_time="1.00" queueing_length="6.00" queueing_length_experimental="6.00"/>
            <lane id="3c_1" queueing_time="1.00" queueing_length="6.00" queueing_length_experimental="6.00"/>
            <lane id="3c_2" queueing_time="1.00" queueing_length="153.84" queueing_length_experimental="153.84"/>
            <lane id="3c_3" queueing_time="0.00" queueing_length="0.00" queueing_length_experimental="6.13"/>
            <lane id="3c_4" queueing_time="17.00" queueing_length="60.01" queueing_length_experimental="318.15"/>
            <lane id="4c_0" queueing_time="2.00" queueing_length="6.01" queueing_length_experimental="13.09"/>
            <lane id="4c_1" queueing_time="1.00" queueing_length="6.01" queueing_length_experimental="13.39"/>
            <lane id="4c_2" queueing_time="1.00" queueing_length="6.00" queueing_length_experimental="6.00"/>
            <lane id="4c_3" queueing_time="0.00" queueing_length="0.00" queueing_length_experimental="13.53"/>
            <lane id="4c_4" queueing_time="14.00" queueing_length="34.01" queueing_length_experimental="34.01"/>
        </lanes>
    </data>
    <data timestep="61.00">
        <lanes>
            <lane id="1c_0" queueing_time="22.00" queueing_length="20.01" queueing_length_experimental="20.01"/>
            <lane id="1c_1" queueing_time="11.00" queueing_length="13.02" queueing_length_experimental="13.02"/>
            <lane id="1c_2" queueing_time="7.00" queueing_length="6.00" queueing_length_experimental="6.00"/>
            <lane id="2c_1" queueing_time="21.00" queueing_length="27.00" queueing_length_experimental="34.28"/>
            <lane id="2c_2" queueing_time="16.00" queueing_length="41.05" queueing_length_experimental="48.40"/>
            <lane id="2c_3" queueing_time="15.00" queueing_length="34.01" queueing_length_experimental="41.97"/>
            <lane id="3c_0" queueing_time="2.00" queueing_length="6.00" queueing_length_experimental="6.00"/>
            <lane id="3c_1" queueing_time="2.00" queueing_length="6.00" queueing_length_experimental="6.00"/>
            <lane id="3c_2" queueing_time="1.00" queueing_length="160.85" queueing_length_experimental="160.85"/>
            <lane id="3c_3" queueing_time="1.00" queueing_length="6.05" queueing_length_experimental="6.05"/>
            <lane id="3c_4" queueing_time="14.00" queueing_length="67.02" queueing_length_experimental="82.10"/>
            <lane id="4c_0" queueing_time="3.00" queueing_length="13.02" queueing_length_experimental="13.02"/>
            <lane id="4c_1" queueing_time="2.00" queueing_length="6.00" queueing_length_experimental="13.09"/>
            <lane id="4c_2" queueing_time="2.00" queueing_length="6.00" queueing_length_experimental="13.33"/>
            <lane id="4c_3" queueing_time="1.00" queueing_length="6.01" queueing_length_experimental="21.00"/>
            <lane id="4c_4" queueing_time="12.00" queueing_length="34.01" queueing_length_experimental="34.01"/>
        </lanes>
    </data>
    <data timestep="62.00">
        <lanes>
            <lane id="1c_0" queueing_time="23.00" queueing_length="20.00" queueing_length_experimental="20.00"/>
            <lane id="1c_1" queueing_time="12.00" queueing_length="13.01" queueing_length_experimental="13.01"/>
            <lane id="1c_2" queueing_time="8.00" queueing_length="6.00" queueing_length_experimental="6.00"/>
            <lane id="2c_1" queueing_time="22.00" queueing_length="41.03" queueing_length_experimental="41.03"/>
            <lane id="2c_2" queueing_time="17.00" queueing_length="34.01" queueing_length_experimental="48.06"/>
            <lane id="2c_3" queueing_time="16.00" queueing_length="34.01" queueing_length_experimental="41.22"/>
            <lane id="3c_0" queueing_time="3.00" queueing_length="6.00" queueing_length_experimental="6.00"/>
            <lane id="3c_1" queueing_time="3.00" queueing_length="6.00" queueing_length_experimental="6.00"/>
            <lane id="3c_2" queueing_time="1.00" queueing_length="470.79" queueing_length_experimental="6.02"/>
            <lane id="3c_3" queueing_time="2.00" queueing_length="6.00" queueing_length_experimental="13.20"/>
            <lane id="3c_4" queueing_time="12.00" queueing_length="287.31" queueing_length_experimental="287.31"/>
            <lane id="4c_0" queueing_time="4.00" queueing_length="13.01" queueing_length_experimental="13.01"/>
            <lane id="4c_1" queueing_time="3.00" queueing_length="13.03" queueing_length_experimental="20.48"/>
            <lane id="4c_2" queueing_time="3.00" queueing_length="6.00" queueing_length_experimental="20.81"/>
            <lane id="4c_3" queueing_time="2.00" queueing_length="13.07" queueing_length_experimental="20.44"/>
            <lane id="4c_4" queueing_time="9.00" queueing_length="34.01" queueing_length_experimental="34.01"/>
        </lanes>
    </data>
    <data timestep="63.00">
        <lanes>
            <lane id="1c_0" queueing_time="24.00" queueing_length="20.00" queueing_length_experimental="20.00"/>
            <lane id="1c_1" queueing_time="13.00" queueing_length="13.00" queueing_length_experimental="13.00"/>
            <lane id="1c_2" queueing_time="9.00" queueing_length="6.00" queueing_length_experimental="6.00"/>
            <lane id="1c_3" queueing_time="0.00" queueing_length="0.00" queueing_length_experimental="6.18"/>
            <lane id="2c_1" queueing_time="23.00" queueing_length="41.02" queueing_length_experimental="343.77"/>
            <lane id="2c_2" queueing_time="18.00" queueing_length="34.01" queueing_length_experimental="55.20"/>
            <lane id="2c_3" queueing_time="17.00" queueing_length="34.01" queueing_length_experimental="48.33"/>
            <lane id="3c_0" queueing_time="0.00" queueing_length="0.00" queueing_length_experimental="5.12"/>
            <lane id="3c_2" queueing_time="2.00" queueing_length="470.79" queueing_length_experimental="0.00"/>
            <lane id="3c_3" queueing_time="0.00" queueing_length="0.00" queueing_length_experimental="13.06"/>
            <lane id="3c_4" queueing_time="10.00" queueing_length="287.31" queueing_length_experimental="287.31"/>
            <lane id="4c_0" queueing_time="3.00" queueing_length="13.00" queueing_length_experimental="20.30"/>
            <lane id="4c_1" queueing_time="2.00" queueing_length="13.00" queueing_length_experimental="28.34"/>
            <lane id="4c_2" queueing_time="1.00" queueing_length="13.04" queueing_length_experimental="20.30"/>
            <lane id="4c_3" queueing_time="2.00" queueing_length="13.01" queueing_length_experimental="20.11"/>
            <lane id="4c_4" queueing_time="5.00" queueing_length="34.01" queueing_length_experimental="34.01"/>
        </lanes>
    </data>
    <data timestep="64.00">
        <lanes>