<?xml version="1.0" encoding="UTF-8"?>

<!-- generated on 2024-06-10 00:09:59 by Eclipse SUMO GUI Version 1.20.0
<configuration xmlns:xsi="http://www.w3.org/2001/XMLSchema-instance" xsi:noNamespaceSchemaLocation="http://sumo.dlr.de/xsd/sumoConfiguration.xsd">

    <input>
        <net-file value="config/cross.net.xml"/>
        <route-files value="config/cross.rou.xml"/>
        <additional-files value="config/cross.det.xml"/>
    </input>

    <output>
        <queue-output value="queueinfo.xml"/>
        <tripinfo-output value="tripinfo.xml"/>
    </output>

    <time>
        <begin value="0"/>
    </time>

    <report>
        <verbose value="true"/>
        <no-step-log value="true"/>
    </report>

    <traci_server>
        <remote-port value="54258"/>
    </traci_server>

</configuration>
-->

<queue-export xmlns:xsi="http://www.w3.org/2001/XMLSchema-instance" xsi:noNamespaceSchemaLocation="http://sumo.dlr.de/xsd/queue_file.xsd">
    <data timestep="0.00">
        <lanes/>
    </data>
    <data timestep="1.00">
        <lanes/>
    </data>
    <data timestep="2.00">
        <lanes/>
    </data>
    <data timestep="3.00">
        <lanes/>
    </data>
    <data timestep="4.00">
        <lanes/>
    </data>
    <data timestep="5.00">
        <lanes/>
    </data>
    <data timestep="6.00">
        <lanes/>
    </data>
    <data timestep="7.00">
        <lanes/>
    </data>
    <data timestep="8.00">
        <lanes/>
    </data>
    <data timestep="9.00">
        <lanes>
            <lane id="4c_2" queueing_time="1.00" queueing_length="475.67" queueing_length_experimental="0.00"/>
        </lanes>
    </data>
    <data timestep="10.00">
        <lanes>
            <lane id="4c_1" queueing_time="1.00" queueing_length="476.34" queueing_length_experimental="0.00"/>
        </lanes>
    </data>
    <data timestep="11.00">
        <lanes>
            <lane id="3c_1" queueing_time="1.00" queueing_length="470.64" queueing_length_experimental="0.00"/>
        </lanes>
    </data>
    <data timestep="12.00">
        <lanes/>
    </data>
    <data timestep="13.00">
        <lanes/>
    </data>
    <data timestep="14.00">
        <lanes/>
    </data>
    <data timestep="15.00">
        <lanes/>
    </data>
    <data timestep="16.00">
        <lanes/>
    </data>
    <data timestep="17.00">
        <lanes/>
    </data>
    <data timestep="18.00">
        <lanes/>
    </data>
    <data timestep="19.00">
        <lanes/>
    </data>
    <data timestep="20.00">
        <lanes/>
    </data>
    <data timestep="21.00">
        <lanes>
            <lane id="3c_2" queueing_time="1.00" queueing_length="468.02" queueing_length_experimental="0.00"/>
        </lanes>
    </data>
    <data timestep="22.00">
        <lanes/>
    </data>
    <data timestep="23.00">
        <lanes/>
    </data>
    <data timestep="24.00">
        <lanes/>
    </data>
    <data timestep="25.00">
        <lanes/>
    </data>
    <data timestep="26.00">
        <lanes/>
    </data>
    <data timestep="27.00">
        <lanes/>
    </data>
    <data timestep="28.00">
        <lanes>
            <lane id="3c_3" queueing_time="1.00" queueing_length="462.90" queueing_length_experimental="0.00"/>
            <lane id="4c_3" queueing_time="1.00" queueing_length="420.30" queueing_length_experimental="0.00"/>
        </lanes>
    </data>
    <data timestep="29.00">
        <lanes>
            <lane id="3c_2" queueing_time="1.00" queueing_length="472.09" queueing_length_experimental="0.00"/>
        </lanes>
    </data>
    <data timestep="30.00">
        <lanes/>
    </data>
    <data timestep="31.00">
        <lanes/>
    </data>
    <data timestep="32.00">
        <lanes/>
    </data>
    <data timestep="33.00">
        <lanes/>
    </data>
    <data timestep="34.00">
        <lanes/>
    </data>
    <data timestep="35.00">
        <lanes>
            <lane id="3c_2" queueing_time="1.00" queueing_length="475.41" queueing_length_experimental="0.00"/>
            <lane id="4c_3" queueing_time="1.00" queueing_length="448.28" queueing_length_experimental="0.00"/>
        </lanes>
    </data>
    <data timestep="36.00">
        <lanes/>
    </data>
    <data timestep="37.00">
        <lanes>
            <lane id="4c_4" queueing_time="0.00" queueing_length="0.00" queueing_length_experimental="230.36"/>
        </lanes>
    </data>
    <data timestep="38.00">
        <lanes>
            <lane id="1c_0" queueing_time="0.00" queueing_length="0.00" queueing_length_experimental="6.38"/>
        </lanes>
    </data>
    <data timestep="39.00">
        <lanes>
            <lane id="1c_0" queueing_time="0.00" queueing_length="0.00" queueing_length_experimental="6.18"/>
        </lanes>
    </data>
    <data timestep="40.00">
        <lanes>
            <lane id="1c_0" queueing_time="0.00" queueing_length="0.00" queueing_length_experimental="6.06"/>
            <lane id="3c_1" queueing_time="1.00" queueing_length="475.20" queueing_length_experimental="0.00"/>
            <lane id="4c_1" queueing_time="1.00" queueing_length="475.75" queueing_length_experimental="0.00"/>
        </lanes>
    </data>
    <data timestep="41.00">
        <lanes>
            <lane id="1c_0" queueing_time="1.00" queueing_length="6.02" queueing_length_experimental="6.02"/>
            <lane id="2c_1" queueing_time="1.00" queueing_length="6.08" queueing_length_experimental="6.08"/>
            <lane id="3c_1" queueing_time="2.00" queueing_length="475.20" queueing_length_experimental="0.00"/>
        </lanes>
    </data>
    <data timestep="42.00">
        <lanes>
            <lane id="1c_0" queueing_time="2.00" queueing_length="6.00" queueing_length_experimental="6.00"/>
            <lane id="2c_1" queueing_time="2.00" queueing_length="6.01" queueing_length_experimental="6.01"/>
            <lane id="2c_2" queueing_time="1.00" queueing_length="6.05" queueing_length_experimental="6.05"/>
        </lanes>
    </data>
    <data timestep="43.00">
        <lanes>
            <lane id="1c_0" queueing_time="3.00" queueing_length="6.00" queueing_length_experimental="6.00"/>
            <lane id="2c_1" queueing_time="3.00" queueing_length="6.00" queueing_length_experimental="6.00"/>
            <lane id="2c_2" queueing_time="2.00" queueing_length="6.02" queueing_length_experimental="6.02"/>
            <lane id="3c_2" queueing_time="1.00" queueing_length="450.31" queueing_length_experimental="0.00"/>
            <lane id="3c_4" queueing_time="0.00" queueing_length="0.00" queueing_length_experimental="6.11"/>
        </lanes>
    </data>
    <data timestep="44.00">
        <lanes>
            <lane id="1c_0" queueing_time="4.00" queueing_length="6.00" queueing_length_experimental="13.02"/>
            <lane id="1c_1" queueing_time="0.00" queueing_length="0.00" queueing_length_experimental="6.14"/>
            <lane id="2c_1" queueing_time="4.00" queueing_length="6.00" queueing_length_experimental="13.06"/>
            <lane id="2c_2" queueing_time="3.00" queueing_length="6.00" queueing_length_experimental="6.00"/>
            <lane id="3c_2" queueing_time="2.00" queueing_length="450.31" queueing_length_experimental="0.00"/>
            <lane id="3c_4" queueing_time="1.00" queueing_length="6.03" queueing_length_experimental="13.51"/>
            <lane id="4c_3" queueing_time="1.00" queueing_length="413.69" queueing_length_experimental="0.00"/>
        </lanes>
    </data>
    <data timestep="45.00">
        <lanes>
            <lane id="1c_0" queueing_time="5.00" queueing_length="13.00" queueing_length_experimental="13.00"/>
            <lane id="1c_1" queueing_time="1.00" queueing_length="6.05" queueing_length_experimental="6.05"/>
            <lane id="2c_1" queueing_time="5.00" queueing_length="13.00" queueing_length_experimental="13.00"/>
            <lane id="2c_2" queueing_time="4.00" queueing_length="6.00" queueing_length_experimental="6.00"/>
            <lane id="3c_3" queueing_time="1.00" queueing_length="479.81" queueing_length_experimental="0.00"/>
            <lane id="3c_4" queueing_time="2.00" queueing_length="6.01" queueing_length_experimental="13.14"/>
            <lane id="4c_4" queueing_time="1.00" queueing_length="6.00" queueing_length_experimental="6.00"/>
        </lanes>
    </data>
    <data timestep="46.00">
        <lanes>
            <lane id="1c_0" queueing_time="6.00" queueing_length="13.00" queueing_length_experimental="13.00"/>
            <lane id="1c_1" queueing_time="2.00" queueing_length="6.01" queueing_length_experimental="6.01"/>
            <lane id="2c_1" queueing_time="6.00" queueing_length="13.00" queueing_length_experimental="13.00"/>
            <lane id="2c_2" queueing_time="5.00" queueing_length="6.00" queueing_length_experimental="6.00"/>
            <lane id="3c_0" queueing_time="1.00" queueing_length="479.87" queueing_length_experimental="0.00"/>
            <lane id="3c_4" queueing_time="3.00" queueing_length="13.06" queueing_length_experimental="241.96"/>
            <lane id="4c_4" queueing_time="2.00" queueing_length="6.00" queueing_length_experimental="6.00"/>
        </lanes>
    </data>
    <data timestep="47.00">
        <lanes>
            <lane id="1c_0" queueing_time="7.00" queueing_length="13.00" queueing_length_experimental="13.00"/>
            <lane id="1c_1" queueing_time="3.00" queueing_length="6.00" queueing_length_experimental="6.00"/>
            <lane id="2c_1" queueing_time="7.00" queueing_length="479.84" queueing_length_experimental="13.00"/>
            <lane id="2c_2" queueing_time="6.00" queueing_length="6.00" queueing_length_experimental="6.00"/>
            <lane id="2c_3" queueing_time="0.00" queueing_length="0.00" queueing_length_experimental="6.26"/>
            <lane id="3c_4" queueing_time="4.00" queueing_length="13.02" queueing_length_experimental="240.69"/>
            <lane id="4c_4" queueing_time="3.00" queueing_length="6.00" queueing_length_experimental="6.00"/>
        </lanes>
    </data>
    <data timestep="48.00">
        <lanes>
            <lane id="1c_0" queueing_time="8.00" queueing_length="13.00" queueing_length_experimental="13.00"/>
            <lane id="1c_1" queueing_time="4.00" queueing_length="6.00" queueing_length_experimental="6.00"/>
            <lane id="2c_1" queueing_time="8.00" queueing_length="20.05" queueing_length_experimental="20.05"/>
            <lane id="2c_2" queueing_time="7.00" queueing_length="6.00" queueing_length_experimental="13.13"/>
            <lane id="2c_3" queueing_time="0.00" queueing_length="0.00" queueing_length_experimental="13.27"/>
            <lane id="3c_4" queueing_time="5.00" queueing_length="288.49" queueing_length_experimental="288.49"/>
            <lane id="4c_3" queueing_time="1.00" queueing_length="463.43" queueing_length_experimental="197.63"/>
            <lane id="4c_4" queueing_time="4.00" queueing_length="6.00" queueing_length_experimental="6.00"/>
        </lanes>
    </data>
    <data timestep="49.00">
        <lanes>
            <lane id="1c_0" queueing_time="9.00" queueing_length="13.00" queueing_length_experimental="13.00"/>
            <lane id="1c_1" queueing_time="5.00" queueing_length="6.00" queueing_length_experimental="6.00"/>
            <lane id="2c_1" queueing_time="9.00" queueing_length="20.02" queueing_length_experimental="20.02"/>
            <lane id="2c_2" queueing_time="8.00" queueing_length="6.00" queueing_length_experimental="13.03"/>
            <lane id="2c_3" queueing_time="1.00" queueing_length="6.01" queueing_length_experimental="13.09"/>
            <lane id="3c_3" queueing_time="1.00" queueing_length="408.11" queueing_length_experimental="0.00"/>
            <lane id="3c_4" queueing_time="6.00" queueing_length="288.49" queueing_length_experimental="288.49"/>
            <lane id="4c_4" queueing_time="5.00" queueing_length="6.00" queueing_length_experimental="6.00"/>
        </lanes>
    </data>
    <data timestep="50.00">
        <lanes>
            <lane id="1c_0" queueing_time="10.00" queueing_length="13.00" queueing_length_experimental="13.00"/>
            <lane id="1c_1" queueing_time="6.00" queueing_length="6.00" queueing_length_experimental="6.00"/>
            <lane id="2c_1" queueing_time="10.00" queueing_length="20.01" queueing_length_experimental="20.01"/>
            <lane id="2c_2" queueing_time="9.00" queueing_length="13.01" queueing_length_experimental="20.16"/>
            <lane id="2c_3" queueing_time="2.00" queueing_length="13.02" queueing_length_experimental="13.02"/>
            <lane id="3c_3" queueing_time="3.00" queueing_length="462.72" queueing_length_experimental="288.49"/>
            <lane id="3c_4" queueing_time="7.00" queueing_length="20.07" queueing_length_experimental="20.07"/>
            <lane id="4c_4" queueing_time="6.00" queueing_length="6.00" queueing_length_experimental="6.00"/>
        </lanes>
    </data>
    <data timestep="51.00">
        <lanes>
            <lane id="1c_0" queueing_time="11.00" queueing_length="13.00" queueing_length_experimental="13.00"/>
            <lane id="1c_1" queueing_time="7.00" queueing_length="6.00" queueing_length_experimental="6.00"/>
            <lane id="2c_1" queueing_time="11.00" queueing_length="20.00" queueing_length_experimental="20.00"/>
            <lane id="2c_2" queueing_time="10.00" queueing_length="13.01" queueing_length_experimental="27.69"/>
            <lane id="2c_3" queueing_time="3.00" queueing_length="13.01" queueing_length_experimental="13.01"/>
            <lane id="3c_0" queueing_time="1.00" queueing_length="479.86" queueing_length_experimental="0.00"/>
            <lane id="3c_4" queueing_time="8.00" queueing_length="20.02" queueing_length_experimental="20.02"/>
            <lane id="4c_4" queueing_time="7.00" queueing_length="6.00" queueing_length_experimental="6.00"/>
        </lanes>
    </data>
    <data timestep="52.00">
        <lanes>
            <lane id="1c_0" queueing_time="12.00" queueing_length="13.00" queueing_length_experimental="13.00"/>
            <lane id="1c_1" queueing_time="8.00" queueing_length="6.00" queueing_length_experimental="6.00"/>
            <lane id="2c_1" queueing_time="12.00" queueing_length="20.00" queueing_length_experimental="20.00"/>
            <lane id="2c_2" queueing_time="11.00" queueing_length="20.01" queueing_length_experimental="27.18"/>
            <lane id="2c_3" queueing_time="4.00" queueing_length="13.00" queueing_length_experimental="13.00"/>
            <lane id="3c_4" queueing_time="9.00" queueing_length="314.67" queueing_length_experimental="314.67"/>
            <lane id="4c_3" queueing_time="1.00" queueing_length="375.08" queueing_length_experimental="0.00"/>
            <lane id="4c_4" queueing_time="8.00" queueing_length="6.00" queueing_length_experimental="6.00"/>
        </lanes>
    </data>
    <data timestep="53.00">
        <lanes>
            <lane id="1c_0" queueing_time="13.00" queueing_length="13.00" queueing_length_experimental="13.00"/>
            <lane id="1c_1" queueing_time="9.00" queueing_length="6.00" queueing_length_experimental="6.00"/>
            <lane id="1c_2" queueing_time="0.00" queueing_length="0.00" queueing_length_experimental="7.01"/>
            <lane id="2c_1" queueing_time="13.00" queueing_length="20.00" queueing_length_experimental="20.00"/>
            <lane id="2c_2" queueing_time="12.00" queueing_length="20.00" queueing_length_experimental="34.32"/>
            <lane id="2c_3" queueing_time="5.00" queueing_length="13.00" queueing_length_experimental="20.77"/>
            <lane id="3c_4" queueing_time="10.00" queueing_length="20.00" queueing_length_experimental="20.00"/>
            <lane id="4c_2" queueing_time="0.00" queueing_length="0.00" queueing_length_experimental="186.32"/>
            <lane id="4c_4" queueing_time="9.00" queueing_length="6.00" queueing_length_experimental="6.00"/>
        </lanes>
    </data>
    <data timestep="54.00">
        <lanes>
            <lane id="1c_0" queueing_time="14.00" queueing_length="13.00" queueing_length_experimental="13.00"/>
            <lane id="1c_1" queueing_time="10.00" queueing_length="6.00" queueing_length_experimental="6.00"/>
            <lane id="1c_2" queueing_time="0.00" queueing_length="0.00" queueing_length_experimental="6.47"/>
            <lane id="2c_1" queueing_time="14.00" queueing_length="20.00" queueing_length_experimental="27.42"/>
            <lane id="2c_2" queueing_time="13.00" queueing_length="27.03" queueing_length_experimental="34.11"/>
            <lane id="2c_3" queueing_time="6.00" queueing_length="13.00" queueing_length_experimental="20.24"/>
            <lane id="3c_4" queueing_time="11.00" queueing_length="20.00" queueing_length_experimental="27.14"/>
            <lane id="4c_3" queueing_time="1.00" queueing_length="475.70" queueing_length_experimental="0.00"/>
            <lane id="4c_4" queueing_time="10.00" queueing_length="6.00" queueing_length_experimental="6.00"/>
        </lanes>
    </data>
    <data timestep="55.00">
        <lanes>
            <lane id="1c_0" queueing_time="15.00" queueing_length="13.00" queueing_length_experimental="13.00"/>
            <lane id="1c_1" queueing_time="11.00" queueing_length="6.00" queueing_length_experimental="6.00"/>
            <lane id="1c_2" queueing_time="0.00" queueing_length="0.00" queueing_length_experimental="6.12"/>
            <lane id="2c_1" queueing_time="15.00" queueing_length="20.00" queueing_length_experimental="27.10"/>
            <lane id="2c_2" queueing_time="14.00" queueing_length="34.05" queueing_length_experimental="34.05"/>
            <lane id="2c_3" queueing_time="7.00" queueing_length="13.00" queueing_length_experimental="20.08"/>
            <lane id="3c_4" queueing_time="12.00" queueing_length="20.00" queueing_length_experimental="27.01"/>
            <lane id="4c_4" queueing_time="11.00" queueing_length="6.00" queueing_length_experimental="6.00"/>
        </lanes>
    </data>
    <data timestep="56.00">
        <lanes>
            <lane id="1c_0" queueing_time="16.00" queueing_length="13.00" queueing_length_experimental="13.00"/>
            <lane id="1c_1" queueing_time="12.00" queueing_length="6.00" queueing_length_experimental="6.00"/>
            <lane id="1c_2" queueing_time="1.00" queueing_length="6.05" queueing_length_experimental="6.05"/>
            <lane id="2c_1" queueing_time="16.00" queueing_length="27.01" queueing_length_experimental="34.25"/>
            <lane id="2c_2" queueing_time="15.00" queueing_length="34.01" queueing_length_experimental="41.44"/>
            <lane id="2c_3" queueing_time="8.00" queueing_length="20.01" queueing_length_experimental="27.11"/>
            <lane id="3c_4" queueing_time="13.00" queueing_length="27.00" queueing_length_experimental="34.23"/>
            <lane id="4c_4" queueing_time="12.00" queueing_length="6.00" queueing_length_experimental="6.00"/>
        </lanes>
    </data>
    <data timestep="57.00">
        <lanes>
            <lane id="1c_0" queueing_time="17.00" queueing_length="13.00" queueing_length_experimental="20.05"/>
            <lane id="1c_1" queueing_time="13.00" queueing_length="6.00" queueing_length_experimental="6.00"/>
            <lane id="1c_2" queueing_time="2.00" queueing_length="6.00" queueing_length_experimental="6.00"/>
            <lane id="2c_1" queueing_time="17.00" queueing_length="27.00" queueing_length_experimental="34.01"/>
            <lane id="2c_2" queueing_time="16.00" queueing_length="34.01" queueing_length_experimental="41.16"/>
            <lane id="2c_3" queueing_time="9.00" queueing_length="27.03" queueing_length_experimental="27.03"/>
            <lane id="3c_4" queueing_time="14.00" queueing_length="479.81" queueing_length_experimental="321.57"/>
            <lane id="4c_4" queueing_time="13.00" queueing_length="6.00" queueing_length_experimental="6.00"/>
        </lanes>
    </data>
    <data timestep="58.00">
        <lanes>
            <lane id="1c_0" queueing_time="18.00" queueing_length="20.02" queueing_length_experimental="20.02"/>
            <lane id="1c_1" queueing_time="14.00" queueing_length="6.00" queueing_length_experimental="13.96"/>
            <lane id="1c_2" queueing_time="3.00" queueing_length="6.00" queueing_length_experimental="6.00"/>
            <lane id="2c_1" queueing_time="18.00" queueing_length="34.01" queueing_length_experimental="41.09"/>
            <lane id="2c_2" queueing_time="17.00" queueing_length="41.08" queueing_length_experimental="41.08"/>
            <lane id="2c_3" queueing_time="10.00" queueing_length="27.01" queueing_length_experimental="34.13"/>
            <lane id="3c_2" queueing_time="0.00" queueing_length="0.00" queueing_length_experimental="6.64"/>
            <lane id="3c_4" queueing_time="15.00" queueing_length="34.06" queueing_length_experimental="41.12"/>
            <lane id="4c_4" queueing_time="14.00" queueing_length="6.00" queueing_length_experimental="6.00"/>
        </lanes>
    </data>
    <data timestep="59.00">
        <lanes>
            <lane id="1c_0" queueing_time="19.00" queueing_length="20.01" queueing_length_experimental="20.01"/>
            <lane id="1c_1" queueing_time="15.00" queueing_length="6.00" queueing_length_experimental="13.05"/>
            <lane id="1c_2" queueing_time="4.00" queueing_length="6.00" queueing_length_experimental="6.00"/>
            <lane id="2c_1" queueing_time="19.00" queueing_length="41.05" queueing_length_experimental="41.05"/>
            <lane id="2c_2" queueing_time="18.00" queueing_length="41.03" queueing_length_experimental="41.03"/>
            <lane id="2c_3" queueing_time="11.00" queueing_length="34.04" queueing_length_experimental="34.04"/>
            <lane id="3c_1" queueing_time="0.00" queueing_length="0.00" queueing_length_experimental="6.31"/>
            <lane id="3c_2" queueing_time="0.00" queueing_length="0.00" queueing_length_experimental="6.10"/>
            <lane id="3c_4" queueing_time="16.00" queueing_length="41.08" queueing_length_experimental="48.24"/>
            <lane id="4c_0" queueing_time="0.00" queueing_length="0.00" queueing_length_experimental="6.29"/>
            <lane id="4c_1" queueing_time="0.00" queueing_length="0.00" queueing_length_experimental="7.12"/>
            <lane id="4c_2" queueing_time="0.00" queueing_length="0.00" queueing_length_experimental="14.57"/>
            <lane id="4c_3" queueing_time="0.00" queueing_length="0.00" queueing_length_experimental="6.39"/>
            <lane id="4c_4" queueing_time="15.00" queueing_length="6.00" queueing_length_experimental="6.00"/>
        </lanes>
    </data>
    <data timestep="60.00">
        <lanes>
            <lane id="1c_0" queueing_time="20.00" queueing_length="20.01" queueing_length_experimental="20.01"/>
            <lane id="1c_1" queueing_time="16.00" queueing_length="13.02" queueing_length_experimental="13.02"/>
            <lane id="1c_2" queueing_time="5.00" queueing_length="6.00" queueing_length_experimental="6.00"/>
            <lane id="2c_1" queueing_time="20.00" queueing_length="41.01" queueing_length_experimental="48.20"/>
            <lane id="2c_2" queueing_time="19.00" queueing_length="41.02" queueing_length_experimental="48.33"/>
            <lane id="2c_3" queueing_time="12.00" queueing_length="34.02" queueing_length_experimental="41.97"/>
            <lane id="3c_0" queueing_time="0.00" queueing_length="0.00" queueing_length_experimental="11.02"/>
            <lane id="3c_1" queueing_time="1.00" queueing_length="476.92" queueing_length_experimental="6.10"/>
            <lane id="3c_2" queueing_time="0.00" queueing_length="0.00" queueing_length_experimental="6.00"/>
            <lane id="3c_3" queueing_time="1.00" queueing_length="422.96" queueing_length_experimental="0.00"/>
            <lane id="3c_4" queueing_time="15.00" queueing_length="41.05" queueing_length_experimental="334.75"/>
            <lane id="4c_0" queueing_time="0.00" queueing_length="0.00" queueing_length_experimental="14.08"/>
            <lane id="4c_1" queueing_time="0.00" queueing_length="0.00" queueing_length_experimental="6.26"/>
            <lane id="4c_2" queueing_time="0.00" queueing_length="0.00" queueing_length_experimental="22.39"/>
            <lane id="4c_3" queueing_time="0.00" queueing_length="0.00" queueing_length_experimental="14.00"/>
            <lane id="4c_4" queueing_time="0.00" queueing_length="0.00" queueing_length_experimental="18.54"/>
        </lanes>
    </data>
    <data timestep="61.00">
        <lanes>
            <lane id="1c_0" queueing_time="21.00" queueing_length="20.00" queueing_length_experimental="27.26"/>
            <lane id="1c_1" queueing_time="17.00" queueing_length="13.01" queueing_length_experimental="13.01"/>
            <lane id="1c_2" queueing_time="6.00" queueing_length="6.00" queueing_length_experimental="6.00"/>
            <lane id="2c_1" queueing_time="21.00" queueing_length="41.01" queueing_length_experimental="48.03"/>
            <lane id="2c_2" queueing_time="20.00" queueing_length="41.01" queueing_length_experimental="48.15"/>
            <lane id="2c_3" queueing_time="13.00" queueing_length="34.01" queueing_length_experimental="41.41"/>
            <lane id="3c_0" queueing_time="1.00" queueing_length="11.01" queueing_length_experimental="11.01"/>
            <lane id="3c_1" queueing_time="1.00" queueing_length="6.03" queueing_length_experimental="6.03"/>
            <lane id="3c_2" queueing_time="1.00" queueing_length="6.00" queueing_length_experimental="13.73"/>
            <lane id="3c_3" queueing_time="2.00" queueing_length="422.96" queueing_length_experimental="0.00"/>
            <lane id="3c_4" queueing_time="12.00" queueing_length="48.06" queueing_length_experimental="342.31"/>
            <lane id="4c_0" queueing_time="1.00" queueing_length="6.01" queueing_length_experimental="13.20"/>
            <lane id="4c_1" queueing_time="0.00" queueing_length="0.00" queueing_length_experimental="13.81"/>
            <lane id="4c_2" queueing_time="1.00" queueing_length="6.00" queueing_length_experimental="13.02"/>
            <lane id="4c_3" queueing_time="1.00" queueing_length="6.01" queueing_length_experimental="13.28"/>
        </lanes>
    </data>
    <data timestep="62.00">
        <lanes>
            <lane id="1c_0" queueing_time="22.00" queueing_length="20.00" queueing_length_experimental="27.09"/>
            <lane id="1c_1" queueing_time="18.00" queueing_length="13.00" queueing_length_experimental="13.00"/>
            <lane id="1c_2" queueing_time="7.00" queueing_length="6.00" queueing_length_experimental="6.00"/>
            <lane id="1c_3" queueing_time="0.00" queueing_length="0.00" queueing_length_experimental="6.13"/>
            <lane id="2c_1" queueing_time="22.00" queueing_length="48.02" queueing_length_experimental="55.20"/>
            <lane id="2c_2" queueing_time="21.00" queueing_length="48.06" queueing_length_experimental="48.06"/>
            <lane id="2c_3" queueing_time="14.00" queueing_length="34.01" queueing_length_experimental="48.60"/>
            <lane id="3c_0" queueing_time="2.00" queueing_length="11.00" queueing_length_experimental="11.00"/>
            <lane id="3c_1" queueing_time="2.00" queueing_length="6.01" queueing_length_experimental="13.04"/>
            <lane id="3c_2" queueing_time="2.00" queueing_length="459.79" queueing_length_experimental="13.08"/>
            <lane id="3c_3" queueing_time="3.00" queueing_length="422.96" queueing_length_experimental="0.00"/>
            <lane id="3c_4" queueing_time="7.00" queueing_length="48.03" queueing_length_experimental="71.42"/>
            <lane id="4c_0" queueing_time="2.00" queueing_length="6.00" queueing_length_experimental="13.09"/>
            <lane id="4c_1" queueing_time="1.00" queueing_length="6.02" queueing_length_experimental="21.42"/>
            <lane id="4c_2" queueing_time="2.00" queueing_length="13.00" queueing_length_experimental="20.27"/>
            <lane id="4c_3" queueing_time="2.00" queueing_length="6.00" queueing_length_experimental="13.12"/>
            <lane id="4c_4" queueing_time="1.00" queueing_length="288.92" queueing_length_experimental="288.92"/>
        </lanes>
    </data>
    <data timestep="63.00">
        <lanes>
            <lane id="1c_0" queueing_time="23.00" queueing_length="27.03" queueing_length_experimental="27.03"/>
            <lane id="1c_1" queueing_time="19.00" queueing_length="13.00" queueing_length_experimental="13.00"/>
            <lane id="1c_2" queueing_time="8.00" queueing_length="6.00" queueing_length_experimental="6.00"/>
            <lane id="1c_3" queueing_time="0.00" queueing_length="0.00" queueing_length_experimental="6.01"/>
            <lane id="2c_1" queueing_time="23.00" queueing_length="48.01" queueing_length_experimental="62.22"/>
            <lane id="2c_2" queueing_time="22.00" queueing_length="48.03" queueing_length_experimental="55.08"/>
            <lane id="2c_3" queueing_time="15.00" queueing_length="41.01" queueing_length_experimental="48.11"/>
            <lane id="3c_0" queueing_time="3.00" queueing_length="11.00" queueing_length_experimental="11.00"/>
            <lane id="3c_1" queueing_time="3.00" queueing_length="13.02" queueing_length_experimental="20.34"/>
            <lane id="3c_2" queueing_time="3.00" queueing_length="429.96" queueing_length_experimental="13.03"/>
            <lane id="3c_3" queueing_time="0.00" queueing_length="0.00" queueing_length_experimental="6.06"/>
            <lane id="3c_4" queueing_time="6.00" queueing_length="479.87" queueing_length_experimental="62.23"/>
            <lane id="4c_0" queueing_time="3.00" queueing_length="13.02" queueing_length_experimental="20.22"/>
            <lane id="4c_1" queueing_time="2.00" queueing_length="6.00" queueing_length_experimental="29.25"/>
            <lane id="4c_2" queueing_time="3.00" queueing_length="13.00" queueing_length_experimental="27.42"/>