<?xml version="1.0" encoding="UTF-8"?>

<!-- generated on 2024-06-11 21:24:07 by Eclipse SUMO sumo Version 1.20.0
<configuration xmlns:xsi="http://www.w3.org/2001/XMLSchema-instance" xsi:noNamespaceSchemaLocation="http://sumo.dlr.de/xsd/sumoConfiguration.xsd">

    <input>
        <net-file value="config/cross.net.xml"/>
        <route-files value="config/cross.rou.xml"/>
        <additional-files value="config/cross.det.xml"/>
    </input>

    <output>
        <queue-output value="queueinfo.xml"/>
        <tripinfo-output value="tripinfo.xml"/>
    </output>

    <time>
        <begin value="0"/>
    </time>

    <report>
        <verbose value="true"/>
        <no-step-log value="true"/>
    </report>

    <traci_server>
        <remote-port value="49568"/>
    </traci_server>

</configuration>
-->

<queue-export xmlns:xsi="http://www.w3.org/2001/XMLSchema-instance" xsi:noNamespaceSchemaLocation="http://sumo.dlr.de/xsd/queue_file.xsd">
    <data timestep="0.00">
        <lanes/>
    </data>
    <data timestep="1.00">
        <lanes/>
    </data>
    <data timestep="2.00">
        <lanes/>
    </data>
    <data timestep="3.00">
        <lanes/>
    </data>
    <data timestep="4.00">
        <lanes/>
    </data>
    <data timestep="5.00">
        <lanes/>
    </data>
    <data timestep="6.00">
        <lanes/>
    </data>
    <data timestep="7.00">
        <lanes/>
    </data>
    <data timestep="8.00">
        <lanes/>
    </data>
    <data timestep="9.00">
        <lanes/>
    </data>
    <data timestep="10.00">
        <lanes/>
    </data>
    <data timestep="11.00">
        <lanes/>
    </data>
    <data timestep="12.00">
        <lanes/>
    </data>
    <data timestep="13.00">
        <lanes/>
    </data>
    <data timestep="14.00">
        <lanes/>
    </data>
    <data timestep="15.00">
        <lanes/>
    </data>
    <data timestep="16.00">
        <lanes/>
    </data>
    <data timestep="17.00">
        <lanes/>
    </data>
    <data timestep="18.00">
        <lanes/>
    </data>
    <data timestep="19.00">
        <lanes/>
    </data>
    <data timestep="20.00">
        <lanes/>
    </data>
    <data timestep="21.00">
        <lanes>
            <lane id="3c_3" queueing_time="1.00" queueing_length="457.93" queueing_length_experimental="0.00"/>
        </lanes>
    </data>
    <data timestep="22.00">
        <lanes/>
    </data>
    <data timestep="23.00">
        <lanes/>
    </data>
    <data timestep="24.00">
        <lanes/>
    </data>
    <data timestep="25.00">
        <lanes/>
    </data>
    <data timestep="26.00">
        <lanes/>
    </data>
    <data timestep="27.00">
        <lanes/>
    </data>
    <data timestep="28.00">
        <lanes/>
    </data>
    <data timestep="29.00">
        <lanes/>
    </data>
    <data timestep="30.00">
        <lanes/>
    </data>
    <data timestep="31.00">
        <lanes/>
    </data>
    <data timestep="32.00">
        <lanes/>
    </data>
    <data timestep="33.00">
        <lanes/>
    </data>
    <data timestep="34.00">
        <lanes/>
    </data>
    <data timestep="35.00">
        <lanes/>
    </data>
    <data timestep="36.00">
        <lanes/>
    </data>
    <data timestep="37.00">
        <lanes>
            <lane id="2c_3" queueing_time="0.00" queueing_length="0.00" queueing_length_experimental="152.64"/>
            <lane id="3c_4" queueing_time="1.00" queueing_length="296.75" queueing_length_experimental="296.75"/>
        </lanes>
    </data>
    <data timestep="38.00">
        <lanes>
            <lane id="2c_1" queueing_time="0.00" queueing_length="0.00" queueing_length_experimental="6.37"/>
            <lane id="3c_4" queueing_time="0.00" queueing_length="0.00" queueing_length_experimental="303.90"/>
        </lanes>
    </data>
    <data timestep="39.00">
        <lanes>
            <lane id="1c_0" queueing_time="0.00" queueing_length="0.00" queueing_length_experimental="6.04"/>
            <lane id="2c_1" queueing_time="0.00" queueing_length="0.00" queueing_length_experimental="6.13"/>
        </lanes>
    </data>
    <data timestep="40.00">
        <lanes>
            <lane id="1c_0" queueing_time="1.00" queueing_length="6.01" queueing_length_experimental="6.01"/>
            <lane id="2c_1" queueing_time="1.00" queueing_length="6.04" queueing_length_experimental="6.04"/>
        </lanes>
    </data>
    <data timestep="41.00">
        <lanes>
            <lane id="1c_0" queueing_time="2.00" queueing_length="6.00" queueing_length_experimental="6.00"/>
            <lane id="1c_1" queueing_time="0.00" queueing_length="0.00" queueing_length_experimental="6.39"/>
            <lane id="2c_1" queueing_time="2.00" queueing_length="6.01" queueing_length_experimental="6.01"/>
        </lanes>
    </data>
    <data timestep="42.00">
        <lanes>
            <lane id="1c_0" queueing_time="3.00" queueing_length="6.00" queueing_length_experimental="6.00"/>
            <lane id="1c_1" queueing_time="0.00" queueing_length="0.00" queueing_length_experimental="6.19"/>
            <lane id="2c_1" queueing_time="3.00" queueing_length="6.00" queueing_length_experimental="6.00"/>
        </lanes>
    </data>
    <data timestep="43.00">
        <lanes>
            <lane id="1c_0" queueing_time="4.00" queueing_length="6.00" queueing_length_experimental="6.00"/>
            <lane id="1c_1" queueing_time="0.00" queueing_length="0.00" queueing_length_experimental="6.09"/>
            <lane id="2c_1" queueing_time="4.00" queueing_length="6.00" queueing_length_experimental="6.00"/>
        </lanes>
    </data>
    <data timestep="44.00">
        <lanes>
            <lane id="1c_0" queueing_time="5.00" queueing_length="6.00" queueing_length_experimental="6.00"/>
            <lane id="1c_1" queueing_time="1.00" queueing_length="6.02" queueing_length_experimental="6.02"/>
            <lane id="2c_1" queueing_time="5.00" queueing_length="6.00" queueing_length_experimental="6.00"/>
            <lane id="3c_4" queueing_time="0.00" queueing_length="0.00" queueing_length_experimental="6.12"/>
        </lanes>
    </data>
    <data timestep="45.00">
        <lanes>
            <lane id="1c_0" queueing_time="6.00" queueing_length="6.00" queueing_length_experimental="6.00"/>
            <lane id="1c_1" queueing_time="2.00" queueing_length="6.00" queueing_length_experimental="6.00"/>
            <lane id="2c_1" queueing_time="6.00" queueing_length="6.00" queueing_length_experimental="6.00"/>
            <lane id="3c_4" queueing_time="1.00" queueing_length="6.03" queueing_length_experimental="6.03"/>
        </lanes>
    </data>
    <data timestep="46.00">
        <lanes>
            <lane id="1c_0" queueing_time="7.00" queueing_length="6.00" queueing_length_experimental="6.00"/>
            <lane id="1c_1" queueing_time="3.00" queueing_length="6.00" queueing_length_experimental="6.00"/>
            <lane id="2c_1" queueing_time="7.00" queueing_length="6.00" queueing_length_experimental="13.06"/>
            <lane id="2c_3" queueing_time="0.00" queueing_length="0.00" queueing_length_experimental="6.14"/>
            <lane id="3c_4" queueing_time="2.00" queueing_length="6.01" queueing_length_experimental="6.01"/>
        </lanes>
    </data>
    <data timestep="47.00">
        <lanes>
            <lane id="1c_0" queueing_time="8.00" queueing_length="6.00" queueing_length_experimental="13.12"/>
            <lane id="1c_1" queueing_time="4.00" queueing_length="6.00" queueing_length_experimental="6.00"/>
            <lane id="1c_2" queueing_time="0.00" queueing_length="0.00" queueing_length_experimental="6.25"/>
            <lane id="2c_1" queueing_time="8.00" queueing_length="13.03" queueing_length_experimental="20.24"/>
            <lane id="2c_2" queueing_time="0.00" queueing_length="0.00" queueing_length_experimental="6.56"/>
            <lane id="2c_3" queueing_time="0.00" queueing_length="0.00" queueing_length_experimental="6.03"/>
            <lane id="3c_4" queueing_time="3.00" queueing_length="6.00" queueing_length_experimental="6.00"/>
        </lanes>
    </data>
    <data timestep="48.00">
        <lanes>
            <lane id="1c_0" queueing_time="9.00" queueing_length="6.00" queueing_length_experimental="13.02"/>
            <lane id="1c_1" queueing_time="5.00" queueing_length="6.00" queueing_length_experimental="6.00"/>
            <lane id="1c_2" queueing_time="0.00" queueing_length="0.00" queueing_length_experimental="6.12"/>
            <lane id="2c_1" queueing_time="9.00" queueing_length="13.01" queueing_length_experimental="27.28"/>
            <lane id="2c_2" queueing_time="0.00" queueing_length="0.00" queueing_length_experimental="6.15"/>
            <lane id="2c_3" queueing_time="1.00" queueing_length="13.09" queueing_length_experimental="13.09"/>
            <lane id="3c_4" queueing_time="4.00" queueing_length="13.05" queueing_length_experimental="13.05"/>
        </lanes>
    </data>
    <data timestep="49.00">
        <lanes>
            <lane id="1c_0" queueing_time="10.00" queueing_length="13.00" queueing_length_experimental="13.00"/>
            <lane id="1c_1" queueing_time="6.00" queueing_length="6.00" queueing_length_experimental="6.00"/>
            <lane id="1c_2" queueing_time="1.00" queueing_length="6.02" queueing_length_experimental="6.02"/>
            <lane id="2c_1" queueing_time="10.00" queueing_length="20.04" queueing_length_experimental="27.14"/>
            <lane id="2c_2" queueing_time="1.00" queueing_length="6.06" queueing_length_experimental="13.90"/>
            <lane id="2c_3" queueing_time="2.00" queueing_length="13.02" queueing_length_experimental="20.30"/>
            <lane id="3c_4" queueing_time="5.00" queueing_length="13.02" queueing_length_experimental="13.02"/>
        </lanes>
    </data>
    <data timestep="50.00">
        <lanes>
            <lane id="1c_0" queueing_time="11.00" queueing_length="13.00" queueing_length_experimental="13.00"/>
            <lane id="1c_1" queueing_time="7.00" queueing_length="6.00" queueing_length_experimental="13.22"/>
            <lane id="1c_2" queueing_time="2.00" queueing_length="6.01" queueing_length_experimental="6.01"/>
            <lane id="2c_1" queueing_time="11.00" queueing_length="27.08" queueing_length_experimental="34.34"/>
            <lane id="2c_2" queueing_time="2.00" queueing_length="6.02" queueing_length_experimental="20.92"/>
            <lane id="2c_3" queueing_time="3.00" queueing_length="13.00" queueing_length_experimental="28.09"/>
            <lane id="3c_4" queueing_time="6.00" queueing_length="13.01" queueing_length_experimental="20.15"/>
        </lanes>
    </data>
    <data timestep="51.00">
        <lanes>
            <lane id="1c_0" queueing_time="12.00" queueing_length="13.00" queueing_length_experimental="13.00"/>
            <lane id="1c_1" queueing_time="8.00" queueing_length="6.00" queueing_length_experimental="13.01"/>
            <lane id="1c_2" queueing_time="3.00" queueing_length="6.00" queueing_length_experimental="6.00"/>
            <lane id="2c_1" queueing_time="12.00" queueing_length="27.04" queueing_length_experimental="34.21"/>
            <lane id="2c_2" queueing_time="3.00" queueing_length="13.05" queueing_length_experimental="20.40"/>
            <lane id="2c_3" queueing_time="4.00" queueing_length="13.00" queueing_length_experimental="27.61"/>
            <lane id="3c_4" queueing_time="7.00" queueing_length="13.00" queueing_length_experimental="20.03"/>
        </lanes>
    </data>
    <data timestep="52.00">
        <lanes>
            <lane id="1c_0" queueing_time="13.00" queueing_length="13.00" queueing_length_experimental="13.00"/>
            <lane id="1c_1" queueing_time="9.00" queueing_length="13.00" queueing_length_experimental="13.00"/>
            <lane id="1c_2" queueing_time="4.00" queueing_length="6.00" queueing_length_experimental="6.00"/>
            <lane id="2c_1" queueing_time="13.00" queueing_length="27.02" queueing_length_experimental="41.67"/>
            <lane id="2c_2" queueing_time="4.00" queueing_length="13.02" queueing_length_experimental="27.79"/>
            <lane id="2c_3" queueing_time="5.00" queueing_length="20.00" queueing_length_experimental="34.74"/>
            <lane id="3c_4" queueing_time="8.00" queueing_length="20.01" queueing_length_experimental="20.01"/>
        </lanes>
    </data>
    <data timestep="53.00">
        <lanes>
            <lane id="1c_0" queueing_time="14.00" queueing_length="13.00" queueing_length_experimental="13.00"/>
            <lane id="1c_1" queueing_time="10.00" queueing_length="13.00" queueing_length_experimental="13.00"/>
            <lane id="1c_2" queueing_time="5.00" queueing_length="6.00" queueing_length_experimental="6.00"/>
            <lane id="1c_3" queueing_time="0.00" queueing_length="0.00" queueing_length_experimental="6.07"/>
            <lane id="2c_1" queueing_time="14.00" queueing_length="34.03" queueing_length_experimental="41.08"/>
            <lane id="2c_2" queueing_time="5.00" queueing_length="20.03" queueing_length_experimental="35.32"/>
            <lane id="2c_3" queueing_time="6.00" queueing_length="20.00" queueing_length_experimental="34.43"/>
            <lane id="3c_4" queueing_time="9.00" queueing_length="20.01" queueing_length_experimental="20.01"/>
        </lanes>
    </data>
    <data timestep="54.00">
        <lanes>
            <lane id="1c_0" queueing_time="15.00" queueing_length="13.00" queueing_length_experimental="13.00"/>
            <lane id="1c_1" queueing_time="11.00" queueing_length="13.00" queueing_length_experimental="13.00"/>
            <lane id="1c_2" queueing_time="6.00" queueing_length="6.00" queueing_length_experimental="6.00"/>
            <lane id="1c_3" queueing_time="1.00" queueing_length="6.03" queueing_length_experimental="6.03"/>
            <lane id="2c_1" queueing_time="15.00" queueing_length="41.05" queueing_length_experimental="41.05"/>
            <lane id="2c_2" queueing_time="6.00" queueing_length="27.05" queueing_length_experimental="43.11"/>
            <lane id="2c_3" queueing_time="7.00" queueing_length="27.01" queueing_length_experimental="41.43"/>
            <lane id="3c_4" queueing_time="10.00" queueing_length="20.00" queueing_length_experimental="20.00"/>
        </lanes>
    </data>
    <data timestep="55.00">
        <lanes>
            <lane id="1c_0" queueing_time="16.00" queueing_length="13.00" queueing_length_experimental="13.00"/>
            <lane id="1c_1" queueing_time="12.00" queueing_length="13.00" queueing_length_experimental="13.00"/>
            <lane id="1c_2" queueing_time="7.00" queueing_length="6.00" queueing_length_experimental="6.00"/>
            <lane id="1c_3" queueing_time="2.00" queueing_length="6.01" queueing_length_experimental="6.01"/>
            <lane id="2c_1" queueing_time="16.00" queueing_length="41.02" queueing_length_experimental="48.27"/>
            <lane id="2c_2" queueing_time="7.00" queueing_length="27.03" queueing_length_experimental="34.16"/>
            <lane id="2c_3" queueing_time="8.00" queueing_length="34.02" queueing_length_experimental="41.11"/>
            <lane id="3c_4" queueing_time="11.00" queueing_length="20.00" queueing_length_experimental="20.00"/>
        </lanes>
    </data>
    <data timestep="56.00">
        <lanes>
            <lane id="1c_0" queueing_time="17.00" queueing_length="25.03" queueing_length_experimental="25.03"/>
            <lane id="1c_1" queueing_time="13.00" queueing_length="13.00" queueing_length_experimental="13.00"/>
            <lane id="1c_2" queueing_time="8.00" queueing_length="6.00" queueing_length_experimental="6.00"/>
            <lane id="1c_3" queueing_time="3.00" queueing_length="6.00" queueing_length_experimental="6.00"/>
            <lane id="2c_1" queueing_time="17.00" queueing_length="41.01" queueing_length_experimental="48.14"/>
            <lane id="2c_2" queueing_time="8.00" queueing_length="34.06" queueing_length_experimental="41.31"/>
            <lane id="2c_3" queueing_time="9.00" queueing_length="41.04" queueing_length_experimental="48.17"/>
            <lane id="3c_4" queueing_time="12.00" queueing_length="20.00" queueing_length_experimental="20.00"/>
        </lanes>
    </data>
    <data timestep="57.00">
        <lanes>
            <lane id="1c_0" queueing_time="18.00" queueing_length="25.01" queueing_length_experimental="25.01"/>
            <lane id="1c_1" queueing_time="14.00" queueing_length="13.00" queueing_length_experimental="20.00"/>
            <lane id="1c_2" queueing_time="9.00" queueing_length="6.00" queueing_length_experimental="6.00"/>
            <lane id="1c_3" queueing_time="4.00" queueing_length="6.00" queueing_length_experimental="6.00"/>
            <lane id="2c_1" queueing_time="18.00" queueing_length="41.01" queueing_length_experimental="48.04"/>
            <lane id="2c_2" queueing_time="9.00" queueing_length="34.03" queueing_length_experimental="55.93"/>
            <lane id="2c_3" queueing_time="10.00" queueing_length="41.02" queueing_length_experimental="48.06"/>
            <lane id="3c_2" queueing_time="1.00" queueing_length="467.91" queueing_length_experimental="0.00"/>
            <lane id="3c_4" queueing_time="13.00" queueing_length="20.00" queueing_length_experimental="20.00"/>
            <lane id="4c_0" queueing_time="1.00" queueing_length="343.14" queueing_length_experimental="343.14"/>
        </lanes>
    </data>
    <data timestep="58.00">
        <lanes>
            <lane id="1c_0" queueing_time="19.00" queueing_length="25.00" queueing_length_experimental="25.00"/>
            <lane id="1c_1" queueing_time="15.00" queueing_length="20.00" queueing_length_experimental="20.00"/>
            <lane id="1c_2" queueing_time="10.00" queueing_length="6.00" queueing_length_experimental="6.00"/>
            <lane id="1c_3" queueing_time="5.00" queueing_length="6.00" queueing_length_experimental="6.00"/>
            <lane id="2c_1" queueing_time="19.00" queueing_length="48.02" queueing_length_experimental="48.02"/>
            <lane id="2c_2" queueing_time="10.00" queueing_length="41.05" queueing_length_experimental="41.05"/>
            <lane id="2c_3" queueing_time="11.00" queueing_length="48.03" queueing_length_experimental="48.03"/>
            <lane id="3c_4" queueing_time="14.00" queueing_length="20.00" queueing_length_experimental="20.00"/>
        </lanes>
    </data>
    <data timestep="59.00">
        <lanes>
            <lane id="1c_0" queueing_time="20.00" queueing_length="25.00" queueing_length_experimental="25.00"/>
            <lane id="1c_1" queueing_time="16.00" queueing_length="20.00" queueing_length_experimental="37.82"/>
            <lane id="1c_2" queueing_time="11.00" queueing_length="6.00" queueing_length_experimental="6.00"/>
            <lane id="1c_3" queueing_time="6.00" queueing_length="6.00" queueing_length_experimental="6.00"/>
            <lane id="2c_1" queueing_time="20.00" queueing_length="48.01" queueing_length_experimental="48.01"/>
            <lane id="2c_2" queueing_time="11.00" queueing_length="41.02" queueing_length_experimental="41.02"/>
            <lane id="2c_3" queueing_time="12.00" queueing_length="48.02" queueing_length_experimental="48.02"/>
            <lane id="3c_4" queueing_time="15.00" queueing_length="20.00" queueing_length_experimental="20.00"/>
            <lane id="4c_3" queueing_time="1.00" queueing_length="479.90" queueing_length_experimental="0.00"/>
            <lane id="4c_4" queueing_time="1.00" queueing_length="367.15" queueing_length_experimental="0.00"/>
        </lanes>
    </data>
    <data timestep="60.00">
        <lanes>
            <lane id="1c_0" queueing_time="21.00" queueing_length="25.00" queueing_length_experimental="25.00"/>
            <lane id="1c_1" queueing_time="17.00" queueing_length="20.00" queueing_length_experimental="20.00"/>
            <lane id="1c_2" queueing_time="12.00" queueing_length="6.00" queueing_length_experimental="13.25"/>
            <lane id="1c_3" queueing_time="7.00" queueing_length="6.00" queueing_length_experimental="6.00"/>
            <lane id="2c_1" queueing_time="21.00" queueing_length="48.01" queueing_length_experimental="48.01"/>
            <lane id="2c_2" queueing_time="12.00" queueing_length="41.01" queueing_length_experimental="48.07"/>
            <lane id="2c_3" queueing_time="13.00" queueing_length="48.01" queueing_length_experimental="55.05"/>
            <lane id="3c_4" queueing_time="16.00" queueing_length="20.00" queueing_length_experimental="27.05"/>
        </lanes>
    </data>
    <data timestep="61.00">
        <lanes>
            <lane id="1c_0" queueing_time="22.00" queueing_length="25.00" queueing_length_experimental="25.00"/>
            <lane id="1c_1" queueing_time="18.00" queueing_length="20.00" queueing_length_experimental="20.00"/>
            <lane id="1c_2" queueing_time="13.00" queueing_length="6.00" queueing_length_experimental="13.08"/>
            <lane id="1c_3" queueing_time="8.00" queueing_length="6.00" queueing_length_experimental="6.00"/>
            <lane id="2c_1" queueing_time="22.00" queueing_length="48.01" queueing_length_experimental="48.01"/>
            <lane id="2c_2" queueing_time="13.00" queueing_length="48.04" queueing_length_experimental="56.07"/>
            <lane id="2c_3" queueing_time="14.00" queueing_length="55.02" queueing_length_experimental="55.02"/>
            <lane id="3c_4" queueing_time="17.00" queueing_length="27.02" queueing_length_experimental="35.06"/>
        </lanes>
    </data>
    <data timestep="62.00">
        <lanes>
            <lane id="1c_0" queueing_time="23.00" queueing_length="25.00" queueing_length_experimental="25.00"/>
            <lane id="1c_1" queueing_time="19.00" queueing_length="20.00" queueing_length_experimental="20.00"/>
            <lane id="1c_2" queueing_time="14.00" queueing_length="13.01" queueing_length_experimental="13.01"/>
            <lane id="1c_3" queueing_time="9.00" queueing_length="6.00" queueing_length_experimental="25.24"/>
            <lane id="2c_1" queueing_time="23.00" queueing_length="48.01" queueing_length_experimental="48.01"/>
            <lane id="2c_2" queueing_time="14.00" queueing_length="48.02" queueing_length_experimental="55.24"/>
            <lane id="2c_3" queueing_time="15.00" queueing_length="55.01" queueing_length_experimental="55.01"/>
            <lane id="3c_4" queueing_time="18.00" queueing_length="27.01" queueing_length_experimental="34.04"/>
        </lanes>
    </data>
    <data timestep="63.00">
        <lanes>
            <lane id="1c_0" queueing_time="24.00" queueing_length="25.00" queueing_length_experimental="25.00"/>
            <lane id="1c_1" queueing_time="20.00" queueing_length="20.00" queueing_length_experimental="27.04"/>
            <lane id="1c_2" queueing_time="15.00" queueing_length="13.01" queueing_length_experimental="13.01"/>
            <lane id="1c_3" queueing_time="10.00" queueing_length="6.00" queueing_length_experimental="6.00"/>
            <lane id="2c_1" queueing_time="24.00" queueing_length="48.01" queueing_length_experimental="48.01"/>
            <lane id="2c_2" queueing_time="15.00" queueing_length="48.01" queueing_length_experimental="55.08"/>
            <lane id="2c_3" queueing_time="16.00" queueing_length="55.01" queueing_length_experimental="55.01"/>
            <lane id="3c_4" queueing_time="19.00" queueing_length="34.01" queueing_length_experimental="41.53"/>
        </lanes>
    </data>
    <data timestep="64.00">
        <lanes>
            <lane id="1c_0" queueing_time="25.00" queueing_length="25.00" queueing_length_experimental="25.00"/>
            <lane id="1c_1" queueing_time="21.00" queueing_length="27.02" queueing_length_experimental="27.02"/>
            <lane id="1c_2" queueing_time="16.00" queueing_length="13.00" queueing_length_experimental="13.00"/>
            <lane id="1c_3" queueing_time="11.00" queueing_length="6.00" queueing_length_experimental="6.00"/>
            <lane id="2c_1" queueing_time="25.00" queueing_length="48.01" queueing_length_experimental="48.01"/>
            <lane id="2c_2" queueing_time="16.00" queueing_length="55.04" queueing_length_experimental="62.10"/>
            <lane id="2c_3" queueing_time="17.00" queueing_length="55.01" queueing_length_experimental="63.20"/>
            <lane id="3c_4" queueing_time="20.00" queueing_length="34.01" queueing_length_experimental="41.25"/>
            <lane id="4c_4" queueing_time="0.00" queueing_length="0.00" queueing_length_experimental="6.13"/>
        </lanes>
    </data>
    <data timestep="65.00">
        <lanes>
            <lane id="1c_0" queueing_time="26.00" queueing_length="25.00" queueing_length_experimental="32.42"/>
            <lane id="1c_1" queueing_time="22.00" queueing_length="27.01" queueing_length_experimental="27.01"/>
            <lane id="1c_2" queueing_time="17.00" queueing_length="13.00" queueing_length_experimental="34.31"/>
            <lane id="1c_3" queueing_time="12.00" queueing_length="18.07" queueing_length_experimental="18.07"/>
            <lane id="2c_1" queueing_time="26.00" queueing_length="55.01" queueing_length_experimental="55.01"/>
            <lane id="2c_2" queueing_time="17.00" queueing_length="62.05" queueing_length_experimental="69.33"/>
            <lane id="2c_3" queueing_time="18.00" queueing_length="55.01" queueing_length_experimental="62.43"/>
            <lane id="3c_4" queueing_time="21.00" queueing_length="34.01" queueing_length_experimental="41.11"/>
            <lane id="4c_4" queueing_time="1.00" queueing_length="6.06" queueing_length_experimental="6.06"/>
        </lanes>
    </data>
    <data timestep="66.00">
        <lanes>
            <lane id="1c_0" queueing_time="27.00" queueing_length="25.00" queueing_length_experimental="32.12"/>
            <lane id="1c_1" queueing_time="23.00" queueing_length="27.00" queueing_length_experimental="27.00"/>
            <lane id="1c_2" queueing_time="18.00" queueing_length="13.00" queueing_length_experimental="13.00"/>
            <lane id="1c_3" queueing_time="13.00" queueing_length="18.01" queueing_length_experimental="18.01"/>
            <lane id="2c_1" queueing_time="27.00" queueing_length="55.01" queueing_length_experimental="62.15"/>
            <lane id="2c_2" queueing_time="18.00" queueing_length="62.02" queueing_length_experimental="69.08"/>
            <lane id="2c_3" queueing_time="19.00" queueing_length="55.01" queueing_length_experimental="62.15"/>
            <lane id="3c_4" queueing_time="22.00" queueing_length="41.05" queueing_length_experimental="41.05"/>
            <lane id="4c_4" queueing_time="2.00" queueing_length="6.03" queueing_length_experimental="13.22"/>
        </lanes>
    </data>
    <data timestep="67.00">
        <lanes>
            <lane id="1c_0" queueing_time="28.00" queueing_length="32.04" queueing_length_experimental="32.04"/>
            <lane id="1c_1" queueing_time="24.00" queueing_length="27.00" queueing_length_experimental="27.00"/>
            <lane id="1c_2" queueing_time="19.00" queueing_length="13.00" queueing_length_experimental="20.04"/>
            <lane id="1c_3" queueing_time="14.00" queueing_length="18.00" queueing_length_experimental="18.00"/>
            <lane id="2c_1" queueing_time="28.00" queueing_length="55.01" queueing_length_experimental="69.53"/>
            <lane id="2c_2" queueing_time="19.00" queueing_length="69.03" queueing_length_experimental="69.03"/>
            <lane id="2c_3" queueing_time="20.00" queueing_length="62.05" queueing_length_experimental="69.40"/>
            <lane id="3c_4" queueing_time="23.00" queueing_length="41.01" queueing_length_experimental="41.01"/>
            <lane id="4c_4" queueing_time="3.00" queueing_length="6.00" queueing_length_experimental="13.08"/>
        </lanes>
    </data>
    <data timestep="68.00">
        <lanes>
            <lane id="1c_0" queueing_time="29.00" queueing_length="32.01" queueing_length_experimental="32.01"/>
            <lane id="1c_1" queueing_time="25.00" queueing_length="27.00" queueing_length_experimental="27.00"/>
            <lane id="1c_2" queueing_time="20.00" queueing_length="20.01" queueing_length_experimental="20.01"/>
            <lane id="1c_3" queueing_time="15.00" queueing_length="18.00" queueing_length_experimental="25.47"/>
            <lane id="2c_1" queueing_time="29.00" queueing_length="62.01" queueing_length_experimental="69.23"/>
            <lane id="2c_2" queueing_time="20.00" queueing_length="69.02" queueing_length_experimental="76.10"/>
            <lane id="2c_3" queueing_time="21.00" queueing_length="62.02" queueing_length_experimental="69.19"/>
            <lane id="3c_4" queueing_time="24.00" queueing_length="41.01" queueing_length_experimental="41.01"/>
            <lane id="4c_4" queueing_time="4.00" queueing_length="13.04" queueing_length_experimental="13.04"/>
        </lanes>
    </data>
    <data timestep="69.00">
        <lanes>
            <lane id="1c_0" queueing_time="30.00" queueing_length="32.01" queueing_length_experimental="32.01"/>
            <lane id="1c_1" queueing_time="26.00" queueing_length="27.00" queueing_length_experimental="27.00"/>
            <lane id="1c_2" queueing_time="21.00" queueing_length="20.01" queueing_length_experimental="20.01"/>
            <lane id="1c_3" queueing_time="16.00" queueing_length="18.00" queueing_length_experimental="25.19"/>
            <lane id="2c_1" queueing_time="30.00" queueing_length="62.01" queueing_length_experimental="69.04"/>
            <lane id="2c_2" queueing_time="21.00" queueing_length="76.04" queueing_length_experimental="76.04"/>
            <lane id="2c_3" queueing_time="22.00" queueing_length="62.01" queueing_length_experimental="76.48"/>
            <lane id="3c_4" queueing_time="25.00" queueing_length="41.01" queueing_length_experimental="41.01"/>
            <lane id="4c_4" queueing_time="5.00" queueing_length="13.00" queueing_length_experimental="13.00"/>
        </lanes>
    </data>