<?xml version="1.0" encoding="UTF-8"?>

<!-- generated on 2024-06-11 21:24:07 by Eclipse SUMO sumo Version 1.20.0
<configuration xmlns:xsi="http://www.w3.org/2001/XMLSchema-instance" xsi:noNamespaceSchemaLocation="http://sumo.dlr.de/xsd/sumoConfiguration.xsd">

    <input>
        <net-file value="config/cross.net.xml"/>
        <route-files value="config/cross.rou.xml"/>
        <additional-files value="config/cross.det.xml"/>
    </input>

    <output>
        <queue-output value="queueinfo.xml"/>
        <tripinfo-output value="tripinfo.xml"/>
    </output>

    <time>
        <begin value="0"/>
    </time>

    <report>
        <verbose value="true"/>
        <no-step-log value="true"/>
    </report>

    <traci_server>
        <remote-port value="49568"/>
    </traci_server>

</configuration>
-->

<tripinfos xmlns:xsi="http://www.w3.org/2001/XMLSchema-instance" xsi:noNamespaceSchemaLocation="http://sumo.dlr.de/xsd/tripinfo_file.xsd">
    <tripinfo id="left_3" depart="0.00" departLane="4c_3" departPos="5.10" departSpeed="0.00" departDelay="0.00" arrival="73.00" arrivalLane="c3_0" arrivalPos="480.00" arrivalSpeed="13.31" duration="73.00" routeLength="995.03" waitingTime="0.00" waitingCount="0" stopTime="0.00" timeLoss="6.80" rerouteNo="0" devices="tripinfo_left_3" vType="passenger" speedFactor="1.08" vaporized=""/>
    <tripinfo id="right_30" depart="6.00" departLane="3c_1" departPos="5.10" departSpeed="0.00" departDelay="0.00" arrival="74.00" arrivalLane="c4_1" arrivalPos="480.00" arrivalSpeed="14.53" duration="68.00" routeLength="995.03" waitingTime="0.00" waitingCount="0" stopTime="0.00" timeLoss="6.43" rerouteNo="0" devices="tripinfo_right_30" vType="passenger" speedFactor="1.18" vaporized=""/>
    <tripinfo id="right_37" depart="8.00" departLane="3c_1" departPos="5.10" departSpeed="0.00" departDelay="1.00" arrival="75.00" arrivalLane="c4_1" arrivalPos="480.00" arrivalSpeed="15.43" duration="67.00" routeLength="995.03" waitingTime="0.00" waitingCount="0" stopTime="0.00" timeLoss="6.09" rerouteNo="0" devices="tripinfo_right_37" vType="passenger" speedFactor="1.18" vaporized=""/>
    <tripinfo id="right_0" depart="0.00" departLane="3c_3" departPos="5.10" departSpeed="0.00" departDelay="0.00" arrival="76.00" arrivalLane="c4_0" arrivalPos="480.00" arrivalSpeed="12.32" duration="76.00" routeLength="995.03" waitingTime="0.00" waitingCount="0" stopTime="0.00" timeLoss="7.93" rerouteNo="0" devices="tripinfo_right_0" vType="passenger" speedFactor="1.06" vaporized=""/>
    <tripinfo id="left_10" depart="2.00" departLane="4c_1" departPos="5.10" departSpeed="0.00" departDelay="0.00" arrival="76.00" arrivalLane="c3_1" arrivalPos="480.00" arrivalSpeed="13.01" duration="74.00" routeLength="995.03" waitingTime="0.00" waitingCount="0" stopTime="0.00" timeLoss="8.10" rerouteNo="0" devices="tripinfo_left_10" vType="passenger" speedFactor="1.09" vaporized=""/>
    <tripinfo id="left_6" depart="2.00" departLane="4c_3" departPos="5.10" departSpeed="0.00" departDelay="1.00" arrival="78.00" arrivalLane="c3_2" arrivalPos="480.00" arrivalSpeed="13.70" duration="76.00" routeLength="995.03" waitingTime="0.00" waitingCount="0" stopTime="0.00" timeLoss="7.41" rerouteNo="0" devices="tripinfo_left_6" vType="passenger" speedFactor="1.05" vaporized=""/>
    <tripinfo id="left_2" depart="0.00" departLane="4c_0" departPos="5.10" departSpeed="0.00" departDelay="0.00" arrival="79.00" arrivalLane="c3_0" arrivalPos="480.00" arrivalSpeed="12.86" duration="79.00" routeLength="995.03" waitingTime="0.00" waitingCount="0" stopTime="0.00" timeLoss="7.85" rerouteNo="0" devices="tripinfo_left_2" vType="passenger" speedFactor="1.01" vaporized=""/>
    <tripinfo id="right_19" depart="6.00" departLane="3c_0" departPos="5.10" departSpeed="0.00" departDelay="2.00" arrival="79.00" arrivalLane="c4_1" arrivalPos="480.00" arrivalSpeed="14.24" duration="73.00" routeLength="995.03" waitingTime="0.00" waitingCount="0" stopTime="0.00" timeLoss="10.54" rerouteNo="0" devices="tripinfo_right_19" vType="passenger" speedFactor="1.16" vaporized=""/>
    <tripinfo id="left_11" depart="3.00" departLane="4c_4" departPos="5.10" departSpeed="0.00" departDelay="1.00" arrival="81.00" arrivalLane="c3_1" arrivalPos="480.00" arrivalSpeed="13.16" duration="78.00" routeLength="995.03" waitingTime="0.00" waitingCount="0" stopTime="0.00" timeLoss="7.88" rerouteNo="0" devices="tripinfo_left_11" vType="passenger" speedFactor="1.03" vaporized=""/>
    <tripinfo id="left_31" depart="6.00" departLane="4c_3" departPos="5.10" departSpeed="0.00" departDelay="0.00" arrival="83.00" arrivalLane="c3_3" arrivalPos="480.00" arrivalSpeed="14.58" duration="77.00" routeLength="995.03" waitingTime="0.00" waitingCount="0" stopTime="0.00" timeLoss="14.40" rerouteNo="0" devices="tripinfo_left_31" vType="passenger" speedFactor="1.15" vaporized=""/>
    <tripinfo id="left_20" depart="4.00" departLane="4c_0" departPos="5.10" departSpeed="0.00" departDelay="0.00" arrival="84.00" arrivalLane="c3_0" arrivalPos="480.00" arrivalSpeed="13.40" duration="80.00" routeLength="995.03" waitingTime="0.00" waitingCount="0" stopTime="0.00" timeLoss="8.88" rerouteNo="0" devices="tripinfo_left_20" vType="passenger" speedFactor="1.02" vaporized=""/>
    <tripinfo id="right_1" depart="0.00" departLane="3c_2" departPos="5.10" departSpeed="0.00" departDelay="0.00" arrival="86.00" arrivalLane="c4_0" arrivalPos="480.00" arrivalSpeed="13.00" duration="86.00" routeLength="995.03" waitingTime="0.00" waitingCount="0" stopTime="0.00" timeLoss="9.31" rerouteNo="0" devices="tripinfo_right_1" vType="passenger" speedFactor="0.94" vaporized=""/>
    <tripinfo id="left_53" depart="10.00" departLane="4c_3" departPos="5.10" departSpeed="0.00" departDelay="0.00" arrival="87.00" arrivalLane="c3_3" arrivalPos="480.00" arrivalSpeed="13.04" duration="77.00" routeLength="995.03" waitingTime="0.00" waitingCount="0" stopTime="0.00" timeLoss="10.87" rerouteNo="0" devices="tripinfo_left_53" vType="passenger" speedFactor="1.10" vaporized=""/>
    <tripinfo id="left_32" depart="8.00" departLane="4c_0" departPos="5.10" departSpeed="0.00" departDelay="2.00" arrival="88.00" arrivalLane="c3_0" arrivalPos="480.00" arrivalSpeed="12.04" duration="80.00" routeLength="995.03" waitingTime="0.00" waitingCount="0" stopTime="0.00" timeLoss="8.44" rerouteNo="0" devices="tripinfo_left_32" vType="passenger" speedFactor="1.01" vaporized=""/>
    <tripinfo id="left_43" depart="8.00" departLane="4c_2" departPos="5.10" departSpeed="0.00" departDelay="0.00" arrival="88.00" arrivalLane="c3_1" arrivalPos="480.00" arrivalSpeed="12.78" duration="80.00" routeLength="995.03" waitingTime="0.00" waitingCount="0" stopTime="0.00" timeLoss="10.94" rerouteNo="0" devices="tripinfo_left_43" vType="passenger" speedFactor="1.04" vaporized=""/>
    <tripinfo id="right_57" depart="12.00" departLane="3c_4" departPos="5.10" departSpeed="0.00" departDelay="0.00" arrival="88.00" arrivalLane="c4_3" arrivalPos="480.00" arrivalSpeed="14.26" duration="76.00" routeLength="995.03" waitingTime="0.00" waitingCount="0" stopTime="0.00" timeLoss="12.92" rerouteNo="0" devices="tripinfo_right_57" vType="passenger" speedFactor="1.14" vaporized=""/>
    <tripinfo id="left_42" depart="9.00" departLane="4c_4" departPos="5.10" departSpeed="0.00" departDelay="1.00" arrival="89.00" arrivalLane="c3_4" arrivalPos="480.00" arrivalSpeed="13.16" duration="80.00" routeLength="995.03" waitingTime="0.00" waitingCount="0" stopTime="0.00" timeLoss="13.83" rerouteNo="0" devices="tripinfo_left_42" vType="passenger" speedFactor="1.09" vaporized=""/>
    <tripinfo id="left_15" depart="4.00" departLane="4c_3" departPos="5.10" departSpeed="0.00" departDelay="1.00" arrival="91.00" arrivalLane="c3_2" arrivalPos="480.00" arrivalSpeed="12.01" duration="87.00" routeLength="995.03" waitingTime="0.00" waitingCount="0" stopTime="0.00" timeLoss="8.96" rerouteNo="0" devices="tripinfo_left_15" vType="passenger" speedFactor="0.93" vaporized=""/>
    <tripinfo id="right_18" depart="4.00" departLane="3c_0" departPos="5.10" departSpeed="0.00" departDelay="0.00" arrival="91.00" arrivalLane="c4_0" arrivalPos="480.00" arrivalSpeed="11.03" duration="87.00" routeLength="995.03" waitingTime="0.00" waitingCount="0" stopTime="0.00" timeLoss="9.95" rerouteNo="0" devices="tripinfo_right_18" vType="passenger" speedFactor="0.94" vaporized=""/>
    <tripinfo id="left_46" depart="10.00" departLane="4c_0" departPos="5.10" departSpeed="0.00" departDelay="1.00" arrival="91.00" arrivalLane="c3_1" arrivalPos="480.00" arrivalSpeed="12.47" duration="81.00" routeLength="995.03" waitingTime="0.00" waitingCount="0" stopTime="0.00" timeLoss="9.11" rerouteNo="0" devices="tripinfo_left_46" vType="passenger" speedFactor="1.00" vaporized=""/>
    <tripinfo id="right_58" depart="12.00" departLane="3c_3" departPos="5.10" departSpeed="0.00" departDelay="0.00" arrival="91.00" arrivalLane="c4_1" arrivalPos="480.00" arrivalSpeed="12.48" duration="79.00" routeLength="995.03" waitingTime="0.00" waitingCount="0" stopTime="0.00" timeLoss="8.57" rerouteNo="0" devices="tripinfo_right_58" vType="passenger" speedFactor="1.02" vaporized=""/>
    <tripinfo id="right_29" depart="6.00" departLane="3c_4" departPos="5.10" departSpeed="0.00" departDelay="0.00" arrival="93.00" arrivalLane="c4_1" arrivalPos="480.00" arrivalSpeed="12.17" duration="87.00" routeLength="995.03" waitingTime="0.00" waitingCount="0" stopTime="0.00" timeLoss="9.28" rerouteNo="0" devices="tripinfo_right_29" vType="passenger" speedFactor="0.93" vaporized=""/>
    <tripinfo id="left_16" depart="3.00" departLane="4c_2" departPos="5.10" departSpeed="0.00" departDelay="0.00" arrival="94.00" arrivalLane="c3_0" arrivalPos="480.00" arrivalSpeed="11.72" duration="91.00" routeLength="995.03" waitingTime="0.00" waitingCount="0" stopTime="0.00" timeLoss="9.32" rerouteNo="0" devices="tripinfo_left_16" vType="passenger" speedFactor="0.88" vaporized=""/>
    <tripinfo id="right_55" depart="12.00" departLane="3c_2" departPos="5.10" departSpeed="0.00" departDelay="0.00" arrival="95.00" arrivalLane="c4_0" arrivalPos="480.00" arrivalSpeed="13.52" duration="83.00" routeLength="995.03" waitingTime="0.00" waitingCount="0" stopTime="0.00" timeLoss="10.62" rerouteNo="0" devices="tripinfo_right_55" vType="passenger" speedFactor="1.00" vaporized=""/>
    <tripinfo id="right_69" depart="15.00" departLane="3c_0" departPos="5.10" departSpeed="0.00" departDelay="1.00" arrival="95.00" arrivalLane="c4_2" arrivalPos="480.00" arrivalSpeed="13.60" duration="80.00" routeLength="995.03" waitingTime="0.00" waitingCount="0" stopTime="0.00" timeLoss="9.73" rerouteNo="0" devices="tripinfo_right_69" vType="passenger" speedFactor="1.02" vaporized=""/>
    <tripinfo id="left_82" depart="17.00" departLane="4c_4" departPos="5.10" departSpeed="0.00" departDelay="0.00" arrival="95.00" arrivalLane="c3_3" arrivalPos="480.00" arrivalSpeed="14.04" duration="78.00" routeLength="995.03" waitingTime="0.00" waitingCount="0" stopTime="0.00" timeLoss="7.40" rerouteNo="0" devices="tripinfo_left_82" vType="passenger" speedFactor="1.02" vaporized=""/>
    <tripinfo id="left_59" depart="12.00" departLane="4c_1" departPos="5.10" departSpeed="0.00" departDelay="0.00" arrival="96.00" arrivalLane="c3_0" arrivalPos="480.00" arrivalSpeed="11.42" duration="84.00" routeLength="995.03" waitingTime="0.00" waitingCount="0" stopTime="0.00" timeLoss="9.80" rerouteNo="0" devices="tripinfo_left_59" vType="passenger" speedFactor="0.97" vaporized=""/>
    <tripinfo id="left_95" depart="19.00" departLane="4c_4" departPos="5.10" departSpeed="0.00" departDelay="0.00" arrival="96.00" arrivalLane="c3_4" arrivalPos="480.00" arrivalSpeed="13.44" duration="77.00" routeLength="995.03" waitingTime="0.00" waitingCount="0" stopTime="0.00" timeLoss="9.12" rerouteNo="0" devices="tripinfo_left_95" vType="passenger" speedFactor="1.06" vaporized=""/>
    <tripinfo id="right_116" depart="24.00" departLane="3c_2" departPos="5.10" departSpeed="0.00" departDelay="0.00" arrival="96.00" arrivalLane="c4_3" arrivalPos="480.00" arrivalSpeed="16.35" duration="72.00" routeLength="995.03" waitingTime="0.00" waitingCount="0" stopTime="0.00" timeLoss="11.01" rerouteNo="0" devices="tripinfo_right_116" vType="passenger" speedFactor="1.18" vaporized=""/>
    <tripinfo id="right_87" depart="21.00" departLane="3c_1" departPos="5.10" departSpeed="0.00" departDelay="3.00" arrival="97.00" arrivalLane="c4_2" arrivalPos="480.00" arrivalSpeed="14.34" duration="76.00" routeLength="995.03" waitingTime="0.00" waitingCount="0" stopTime="0.00" timeLoss="6.93" rerouteNo="0" devices="tripinfo_right_87" vType="passenger" speedFactor="1.04" vaporized=""/>
    <tripinfo id="left_70" depart="14.00" departLane="4c_1" departPos="5.10" departSpeed="0.00" departDelay="0.00" arrival="98.00" arrivalLane="c3_2" arrivalPos="480.00" arrivalSpeed="13.81" duration="84.00" routeLength="995.03" waitingTime="0.00" waitingCount="0" stopTime="0.00" timeLoss="13.77" rerouteNo="0" devices="tripinfo_left_70" vType="passenger" speedFactor="1.02" vaporized=""/>
    <tripinfo id="left_99" depart="21.00" departLane="4c_4" departPos="5.10" departSpeed="0.00" departDelay="1.00" arrival="98.00" arrivalLane="c3_4" arrivalPos="480.00" arrivalSpeed="14.56" duration="77.00" routeLength="995.03" waitingTime="0.00" waitingCount="0" stopTime="0.00" timeLoss="11.28" rerouteNo="0" devices="tripinfo_left_99" vType="passenger" speedFactor="1.10" vaporized=""/>
    <tripinfo id="left_52" depart="13.00" departLane="4c_0" departPos="5.10" departSpeed="0.00" departDelay="3.00" arrival="99.00" arrivalLane="c3_0" arrivalPos="480.00" arrivalSpeed="11.64" duration="86.00" routeLength="995.03" waitingTime="0.00" waitingCount="0" stopTime="0.00" timeLoss="14.99" rerouteNo="0" devices="tripinfo_left_52" vType="passenger" speedFactor="1.02" vaporized=""/>
    <tripinfo id="left_5" depart="1.00" departLane="4c_4" departPos="5.10" departSpeed="0.00" departDelay="0.00" arrival="100.00" arrivalLane="c3_0" arrivalPos="480.00" arrivalSpeed="9.94" duration="99.00" routeLength="995.03" waitingTime="0.00" waitingCount="0" stopTime="0.00" timeLoss="12.53" rerouteNo="0" devices="tripinfo_left_5" vType="passenger" speedFactor="0.83" vaporized=""/>
    <tripinfo id="left_80" depart="17.00" departLane="4c_1" departPos="5.10" departSpeed="0.00" departDelay="0.00" arrival="100.00" arrivalLane="c3_2" arrivalPos="480.00" arrivalSpeed="13.66" duration="83.00" routeLength="995.03" waitingTime="0.00" waitingCount="0" stopTime="0.00" timeLoss="13.30" rerouteNo="0" devices="tripinfo_left_80" vType="passenger" speedFactor="1.03" vaporized=""/>
    <tripinfo id="right_98" depart="20.00" departLane="3c_0" departPos="5.10" departSpeed="0.00" departDelay="0.00" arrival="101.00" arrivalLane="c4_2" arrivalPos="480.00" arrivalSpeed="14.65" duration="81.00" routeLength="995.03" waitingTime="0.00" waitingCount="0" stopTime="0.00" timeLoss="16.51" rerouteNo="0" devices="tripinfo_right_98" vType="passenger" speedFactor="1.12" vaporized=""/>
    <tripinfo id="left_54" depart="15.00" departLane="4c_0" departPos="5.10" departSpeed="0.00" departDelay="4.00" arrival="102.00" arrivalLane="c3_1" arrivalPos="480.00" arrivalSpeed="13.25" duration="87.00" routeLength="995.03" waitingTime="0.00" waitingCount="0" stopTime="0.00" timeLoss="14.68" rerouteNo="0" devices="tripinfo_left_54" vType="passenger" speedFactor="1.00" vaporized=""/>
    <tripinfo id="left_76" depart="17.00" departLane="4c_0" departPos="5.10" departSpeed="0.00" departDelay="1.00" arrival="102.00" arrivalLane="c3_2" arrivalPos="480.00" arrivalSpeed="12.15" duration="85.00" routeLength="995.03" waitingTime="0.00" waitingCount="0" stopTime="0.00" timeLoss="15.14" rerouteNo="0" devices="tripinfo_left_76" vType="passenger" speedFactor="1.03" vaporized=""/>
    <tripinfo id="right_48" depart="10.00" departLane="3c_1" departPos="5.10" departSpeed="0.00" departDelay="0.00" arrival="103.00" arrivalLane="c4_0" arrivalPos="480.00" arrivalSpeed="11.54" duration="93.00" routeLength="995.03" waitingTime="0.00" waitingCount="0" stopTime="0.00" timeLoss="10.57" rerouteNo="0" devices="tripinfo_right_48" vType="passenger" speedFactor="0.88" vaporized=""/>
    <tripinfo id="right_64" depart="14.00" departLane="3c_2" departPos="5.10" departSpeed="0.00" departDelay="1.00" arrival="104.00" arrivalLane="c4_2" arrivalPos="480.00" arrivalSpeed="11.50" duration="90.00" routeLength="995.03" waitingTime="0.00" waitingCount="0" stopTime="0.00" timeLoss="12.96" rerouteNo="0" devices="tripinfo_right_64" vType="passenger" speedFactor="0.94" vaporized=""/>
    <tripinfo id="left_81" depart="20.00" departLane="4c_2" departPos="5.10" departSpeed="0.00" departDelay="3.00" arrival="104.00" arrivalLane="c3_2" arrivalPos="480.00" arrivalSpeed="12.91" duration="84.00" routeLength="995.03" waitingTime="0.00" waitingCount="0" stopTime="0.00" timeLoss="11.77" rerouteNo="0" devices="tripinfo_left_81" vType="passenger" speedFactor="1.00" vaporized=""/>
    <tripinfo id="left_83" depart="19.00" departLane="4c_0" departPos="5.10" departSpeed="0.00" departDelay="2.00" arrival="104.00" arrivalLane="c3_1" arrivalPos="480.00" arrivalSpeed="11.92" duration="85.00" routeLength="995.03" waitingTime="0.00" waitingCount="0" stopTime="0.00" timeLoss="10.57" rerouteNo="0" devices="tripinfo_left_83" vType="passenger" speedFactor="0.97" vaporized=""/>
    <tripinfo id="left_24" depart="6.00" departLane="4c_0" departPos="5.10" departSpeed="0.00" departDelay="1.00" arrival="105.00" arrivalLane="c3_0" arrivalPos="480.00" arrivalSpeed="9.59" duration="99.00" routeLength="995.03" waitingTime="0.00" waitingCount="0" stopTime="0.00" timeLoss="12.01" rerouteNo="0" devices="tripinfo_left_24" vType="passenger" speedFactor="0.83" vaporized=""/>
    <tripinfo id="right_50" depart="10.00" departLane="3c_3" departPos="5.10" departSpeed="0.00" departDelay="0.00" arrival="105.00" arrivalLane="c4_1" arrivalPos="480.00" arrivalSpeed="11.51" duration="95.00" routeLength="995.03" waitingTime="0.00" waitingCount="0" stopTime="0.00" timeLoss="11.19" rerouteNo="0" devices="tripinfo_right_50" vType="passenger" speedFactor="0.85" vaporized=""/>
    <tripinfo id="left_51" depart="11.00" departLane="4c_2" departPos="12.10" departSpeed="0.00" departDelay="1.00" arrival="105.00" arrivalLane="c3_3" arrivalPos="480.00" arrivalSpeed="10.02" duration="94.00" routeLength="988.03" waitingTime="0.00" waitingCount="0" stopTime="0.00" timeLoss="11.29" rerouteNo="0" devices="tripinfo_left_51" vType="bus" speedFactor="1.17" vaporized=""/>
    <tripinfo id="right_56" depart="13.00" departLane="3c_0" departPos="5.10" departSpeed="0.00" departDelay="1.00" arrival="105.00" arrivalLane="c4_0" arrivalPos="480.00" arrivalSpeed="10.98" duration="92.00" routeLength="995.03" waitingTime="0.00" waitingCount="0" stopTime="0.00" timeLoss="11.74" rerouteNo="0" devices="tripinfo_right_56" vType="passenger" speedFactor="0.90" vaporized=""/>
    <tripinfo id="right_88" depart="23.00" departLane="3c_1" departPos="5.10" departSpeed="0.00" departDelay="5.00" arrival="105.00" arrivalLane="c4_3" arrivalPos="480.00" arrivalSpeed="12.08" duration="82.00" routeLength="995.03" waitingTime="0.00" waitingCount="0" stopTime="0.00" timeLoss="10.56" rerouteNo="0" devices="tripinfo_right_88" vType="passenger" speedFactor="1.01" vaporized=""/>
    <tripinfo id="right_49" depart="10.00" departLane="3c_4" departPos="5.10" departSpeed="0.00" departDelay="0.00" arrival="106.00" arrivalLane="c4_4" arrivalPos="480.00" arrivalSpeed="10.68" duration="96.00" routeLength="995.03" waitingTime="0.00" waitingCount="0" stopTime="0.00" timeLoss="11.52" rerouteNo="0" devices="tripinfo_right_49" vType="passenger" speedFactor="0.85" vaporized=""/>
    <tripinfo id="rightTurn4_86" depart="17.00" departLane="3c_0" departPos="5.10" departSpeed="0.00" departDelay="0.00" arrival="106.00" arrivalLane="c2_0" arrivalPos="480.00" arrivalSpeed="11.79" duration="89.00" routeLength="966.63" waitingTime="0.00" waitingCount="0" stopTime="0.00" timeLoss="18.69" rerouteNo="0" devices="tripinfo_rightTurn4_86" vType="passenger" speedFactor="1.00" vaporized=""/>
    <tripinfo id="left_94" depart="21.00" departLane="4c_0" departPos="5.10" departSpeed="0.00" departDelay="2.00" arrival="106.00" arrivalLane="c3_1" arrivalPos="480.00" arrivalSpeed="14.41" duration="85.00" routeLength="995.03" waitingTime="0.00" waitingCount="0" stopTime="0.00" timeLoss="18.66" rerouteNo="0" devices="tripinfo_left_94" vType="passenger" speedFactor="1.09" vaporized=""/>
    <tripinfo id="right_102" depart="22.00" departLane="3c_0" departPos="5.10" departSpeed="0.00" departDelay="1.00" arrival="106.00" arrivalLane="c4_2" arrivalPos="480.00" arrivalSpeed="11.58" duration="84.00" routeLength="995.03" waitingTime="0.00" waitingCount="0" stopTime="0.00" timeLoss="9.59" rerouteNo="0" devices="tripinfo_right_102" vType="passenger" speedFactor="0.97" vaporized=""/>
    <tripinfo id="left_65" depart="13.00" departLane="4c_2" departPos="5.10" departSpeed="0.00" departDelay="0.00" arrival="107.00" arrivalLane="c3_3" arrivalPos="480.00" arrivalSpeed="9.96" duration="94.00" routeLength="995.03" waitingTime="0.00" waitingCount="0" stopTime="0.00" timeLoss="12.75" rerouteNo="0" devices="tripinfo_left_65" vType="passenger" speedFactor="0.88" vaporized=""/>
    <tripinfo id="left_72" depart="18.00" departLane="4c_2" departPos="5.10" departSpeed="0.00" departDelay="4.00" arrival="107.00" arrivalLane="c3_2" arrivalPos="480.00" arrivalSpeed="10.76" duration="89.00" routeLength="995.03" waitingTime="0.00" waitingCount="0" stopTime="0.00" timeLoss="12.14" rerouteNo="0" devices="tripinfo_left_72" vType="passenger" speedFactor="0.94" vaporized=""/>
    <tripinfo id="right_78" depart="21.00" departLane="3c_4" departPos="5.10" departSpeed="0.00" departDelay="4.00" arrival="107.00" arrivalLane="c4_3" arrivalPos="480.00" arrivalSpeed="11.58" duration="86.00" routeLength="995.03" waitingTime="0.00" waitingCount="0" stopTime="0.00" timeLoss="14.46" rerouteNo="0" devices="tripinfo_right_78" vType="passenger" speedFactor="1.01" vaporized=""/>
    <tripinfo id="right_63" depart="14.00" departLane="3c_4" departPos="5.10" departSpeed="0.00" departDelay="1.00" arrival="108.00" arrivalLane="c4_4" arrivalPos="480.00" arrivalSpeed="12.15" duration="94.00" routeLength="995.03" waitingTime="0.00" waitingCount="0" stopTime="0.00" timeLoss="20.82" rerouteNo="0" devices="tripinfo_right_63" vType="passenger" speedFactor="0.99" vaporized=""/>
    <tripinfo id="right_106" depart="24.00" departLane="3c_0" departPos="5.10" departSpeed="0.00" departDelay="2.00" arrival="108.00" arrivalLane="c4_1" arrivalPos="480.00" arrivalSpeed="11.69" duration="84.00" routeLength="995.03" waitingTime="0.00" waitingCount="0" stopTime="0.00" timeLoss="12.61" rerouteNo="0" devices="tripinfo_right_106" vType="passenger" speedFactor="1.01" vaporized=""/>
    <tripinfo id="left_113" depart="26.00" departLane="4c_0" departPos="5.10" departSpeed="0.00" departDelay="3.00" arrival="108.00" arrivalLane="c3_1" arrivalPos="480.00" arrivalSpeed="11.78" duration="82.00" routeLength="995.03" waitingTime="0.00" waitingCount="0" stopTime="0.00" timeLoss="10.25" rerouteNo="0" devices="tripinfo_left_113" vType="passenger" speedFactor="1.01" vaporized=""/>
    <tripinfo id="left_71" depart="15.00" departLane="4c_2" departPos="5.10" departSpeed="0.00" departDelay="1.00" arrival="109.00" arrivalLane="c3_3" arrivalPos="480.00" arrivalSpeed="13.34" duration="94.00" routeLength="995.03" waitingTime="0.00" waitingCount="0" stopTime="0.00" timeLoss="19.98" rerouteNo="0" devices="tripinfo_left_71" vType="passenger" speedFactor="0.97" vaporized=""/>
    <tripinfo id="right_75" depart="19.00" departLane="3c_4" departPos="5.10" departSpeed="0.00" departDelay="3.00" arrival="109.00" arrivalLane="c4_3" arrivalPos="480.00" arrivalSpeed="12.14" duration="90.00" routeLength="995.03" waitingTime="0.00" waitingCount="0" stopTime="0.00" timeLoss="16.74" rerouteNo="0" devices="tripinfo_right_75" vType="passenger" speedFactor="0.98" vaporized=""/>
    <tripinfo id="right_118" depart="27.00" departLane="3c_0" departPos="5.10" departSpeed="0.00" departDelay="3.00" arrival="109.00" arrivalLane="c4_1" arrivalPos="480.00" arrivalSpeed="11.83" duration="82.00" routeLength="995.03" waitingTime="0.00" waitingCount="0" stopTime="0.00" timeLoss="9.60" rerouteNo="0" devices="tripinfo_right_118" vType="passenger" speedFactor="0.99" vaporized=""/>
    <tripinfo id="left_119" depart="28.00" departLane="4c_0" departPos="5.10" departSpeed="0.00" departDelay="4.00" arrival="109.00" arrivalLane="c3_0" arrivalPos="480.00" arrivalSpeed="14.54" duration="81.00" routeLength="995.03" waitingTime="0.00" waitingCount="0" stopTime="0.00" timeLoss="13.56" rerouteNo="0" devices="tripinfo_left_119" vType="passenger" speedFactor="1.07" vaporized=""/>
    <tripinfo id="left_123" depart="26.00" departLane="4c_1" departPos="5.10" departSpeed="0.00" departDelay="0.00" arrival="109.00" arrivalLane="c3_2" arrivalPos="480.00" arrivalSpeed="13.00" duration="83.00" routeLength="995.03" waitingTime="0.00" waitingCount="0" stopTime="0.00" timeLoss="12.12" rerouteNo="0" devices="tripinfo_left_123" vType="passenger" speedFactor="1.02" vaporized=""/>
    <tripinfo id="right_77" depart="17.00" departLane="3c_3" departPos="5.10" departSpeed="0.00" departDelay="0.00" arrival="110.00" arrivalLane="c4_3" arrivalPos="480.00" arrivalSpeed="13.22" duration="93.00" routeLength="995.03" waitingTime="1.00" waitingCount="1" stopTime="0.00" timeLoss="19.14" rerouteNo="0" devices="tripinfo_right_77" vType="passenger" speedFactor="0.98" vaporized=""/>
    <tripinfo id="left_128" depart="30.00" departLane="4c_0" departPos="5.10" departSpeed="0.00" departDelay="3.00" arrival="110.00" arrivalLane="c3_2" arrivalPos="480.00" arrivalSpeed="13.46" duration="80.00" routeLength="995.03" waitingTime="0.00" waitingCount="0" stopTime="0.00" timeLoss="15.73" rerouteNo="0" devices="tripinfo_left_128" vType="passenger" speedFactor="1.12" vaporized=""/>
    <tripinfo id="right_68" depart="16.00" departLane="3c_4" departPos="5.10" departSpeed="0.00" departDelay="2.00" arrival="111.00" arrivalLane="c4_4" arrivalPos="480.00" arrivalSpeed="13.78" duration="95.00" routeLength="995.03" waitingTime="1.00" waitingCount="1" stopTime="0.00" timeLoss="26.05" rerouteNo="0" devices="tripinfo_right_68" vType="passenger" speedFactor="1.04" vaporized=""/>
    <tripinfo id="left_79" depart="17.00" departLane="4c_3" departPos="5.10" departSpeed="0.00" departDelay="0.00" arrival="111.00" arrivalLane="c3_3" arrivalPos="480.00" arrivalSpeed="13.42" duration="94.00" routeLength="995.03" waitingTime="0.00" waitingCount="0" stopTime="0.00" timeLoss="27.44" rerouteNo="0" devices="tripinfo_left_79" vType="passenger" speedFactor="1.09" vaporized=""/>
    <tripinfo id="right_117" depart="28.00" departLane="3c_4" departPos="5.10" departSpeed="0.00" departDelay="4.00" arrival="111.00" arrivalLane="c4_3" arrivalPos="480.00" arrivalSpeed="11.96" duration="83.00" routeLength="995.03" waitingTime="0.00" waitingCount="0" stopTime="0.00" timeLoss="11.43" rerouteNo="0" devices="tripinfo_right_117" vType="passenger" speedFactor="1.00" vaporized=""/>
    <tripinfo id="left_159" depart="36.00" departLane="4c_1" departPos="5.10" departSpeed="0.00" departDelay="2.00" arrival="112.00" arrivalLane="c3_2" arrivalPos="480.00" arrivalSpeed="15.82" duration="76.00" routeLength="995.03" waitingTime="0.00" waitingCount="0" stopTime="0.00" timeLoss="12.72" rerouteNo="0" devices="tripinfo_left_159" vType="passenger" speedFactor="1.14" vaporized=""/>
    <tripinfo id="left_107" depart="23.00" departLane="4c_3" departPos="5.10" departSpeed="0.00" departDelay="1.00" arrival="113.00" arrivalLane="c3_3" arrivalPos="480.00" arrivalSpeed="13.96" duration="90.00" routeLength="995.03" waitingTime="0.00" waitingCount="0" stopTime="0.00" timeLoss="20.02" rerouteNo="0" devices="tripinfo_left_107" vType="passenger" speedFactor="1.03" vaporized=""/>
    <tripinfo id="right_152" depart="33.00" departLane="3c_3" departPos="5.10" departSpeed="0.00" departDelay="0.00" arrival="113.00" arrivalLane="c4_4" arrivalPos="480.00" arrivalSpeed="13.27" duration="80.00" routeLength="995.03" waitingTime="0.00" waitingCount="0" stopTime="0.00" timeLoss="12.74" rerouteNo="0" devices="tripinfo_right_152" vType="passenger" speedFactor="1.07" vaporized=""/>
    <tripinfo id="right_155" depart="35.00" departLane="3c_3" departPos="5.10" departSpeed="0.00" departDelay="1.00" arrival="113.00" arrivalLane="c4_3" arrivalPos="480.00" arrivalSpeed="14.28" duration="78.00" routeLength="995.03" waitingTime="0.00" waitingCount="0" stopTime="0.00" timeLoss="13.56" rerouteNo="0" devices="tripinfo_right_155" vType="passenger" speedFactor="1.12" vaporized=""/>
    <tripinfo id="right_93" depart="26.00" departLane="3c_4" departPos="5.10" departSpeed="0.00" departDelay="7.00" arrival="114.00" arrivalLane="c4_0" arrivalPos="480.00" arrivalSpeed="10.97" duration="88.00" routeLength="995.03" waitingTime="0.00" waitingCount="0" stopTime="0.00" timeLoss="10.03" rerouteNo="0" devices="tripinfo_right_93" vType="passenger" speedFactor="0.92" vaporized=""/>
    <tripinfo id="left_103" depart="21.00" departLane="4c_3" departPos="5.10" departSpeed="0.00" departDelay="0.00" arrival="114.00" arrivalLane="c3_1" arrivalPos="480.00" arrivalSpeed="10.89" duration="93.00" routeLength="995.03" waitingTime="0.00" waitingCount="0" stopTime="0.00" timeLoss="17.34" rerouteNo="0" devices="tripinfo_left_103" vType="passenger" speedFactor="0.95" vaporized=""/>
    <tripinfo id="left_131" depart="28.00" departLane="4c_4" departPos="5.10" departSpeed="0.00" departDelay="0.00" arrival="114.00" arrivalLane="c3_3" arrivalPos="480.00" arrivalSpeed="14.06" duration="86.00" routeLength="995.03" waitingTime="0.00" waitingCount="0" stopTime="0.00" timeLoss="18.94" rerouteNo="0" devices="tripinfo_left_131" vType="passenger" speedFactor="1.07" vaporized=""/>