<?xml version="1.0" encoding="UTF-8"?>

<!-- generated on 2024-06-10 00:09:59 by Eclipse SUMO GUI Version 1.20.0
<configuration xmlns:xsi="http://www.w3.org/2001/XMLSchema-instance" xsi:noNamespaceSchemaLocation="http://sumo.dlr.de/xsd/sumoConfiguration.xsd">

    <input>
        <net-file value="config/cross.net.xml"/>
        <route-files value="config/cross.rou.xml"/>
        <additional-files value="config/cross.det.xml"/>
    </input>

    <output>
        <queue-output value="queueinfo.xml"/>
        <tripinfo-output value="tripinfo.xml"/>
    </output>

    <time>
        <begin value="0"/>
    </time>

    <report>
        <verbose value="true"/>
        <no-step-log value="true"/>
    </report>

    <traci_server>
        <remote-port value="54258"/>
    </traci_server>

</configuration>
-->

<tripinfos xmlns:xsi="http://www.w3.org/2001/XMLSchema-instance" xsi:noNamespaceSchemaLocation="http://sumo.dlr.de/xsd/tripinfo_file.xsd">
    <tripinfo id="left_3" depart="0.00" departLane="4c_3" departPos="5.10" departSpeed="0.00" departDelay="0.00" arrival="74.00" arrivalLane="c3_0" arrivalPos="480.00" arrivalSpeed="13.01" duration="74.00" routeLength="995.03" waitingTime="0.00" waitingCount="0" stopTime="0.00" timeLoss="6.99" rerouteNo="0" devices="tripinfo_left_3" vType="passenger" speedFactor="1.08" vaporized=""/>
    <tripinfo id="right_31" depart="5.00" departLane="3c_0" departPos="5.10" departSpeed="0.00" departDelay="0.00" arrival="75.00" arrivalLane="c4_1" arrivalPos="480.00" arrivalSpeed="15.63" duration="70.00" routeLength="995.03" waitingTime="0.00" waitingCount="0" stopTime="0.00" timeLoss="7.40" rerouteNo="0" devices="tripinfo_right_31" vType="passenger" speedFactor="1.15" vaporized=""/>
    <tripinfo id="right_0" depart="0.00" departLane="3c_4" departPos="5.10" departSpeed="0.00" departDelay="0.00" arrival="76.00" arrivalLane="c4_0" arrivalPos="480.00" arrivalSpeed="13.71" duration="76.00" routeLength="995.03" waitingTime="0.00" waitingCount="0" stopTime="0.00" timeLoss="7.71" rerouteNo="0" devices="tripinfo_right_0" vType="passenger" speedFactor="1.06" vaporized=""/>
    <tripinfo id="left_28" depart="4.00" departLane="4c_0" departPos="5.10" departSpeed="0.00" departDelay="0.00" arrival="79.00" arrivalLane="c3_1" arrivalPos="480.00" arrivalSpeed="14.75" duration="75.00" routeLength="995.03" waitingTime="0.00" waitingCount="0" stopTime="0.00" timeLoss="11.39" rerouteNo="0" devices="tripinfo_left_28" vType="passenger" speedFactor="1.13" vaporized=""/>
    <tripinfo id="left_2" depart="0.00" departLane="4c_1" departPos="5.10" departSpeed="0.00" departDelay="0.00" arrival="80.00" arrivalLane="c3_0" arrivalPos="480.00" arrivalSpeed="13.33" duration="80.00" routeLength="995.03" waitingTime="0.00" waitingCount="0" stopTime="0.00" timeLoss="8.56" rerouteNo="0" devices="tripinfo_left_2" vType="passenger" speedFactor="1.01" vaporized=""/>
    <tripinfo id="left_4" depart="2.00" departLane="4c_1" departPos="5.10" departSpeed="0.00" departDelay="2.00" arrival="81.00" arrivalLane="c3_1" arrivalPos="480.00" arrivalSpeed="13.58" duration="79.00" routeLength="995.03" waitingTime="0.00" waitingCount="0" stopTime="0.00" timeLoss="8.69" rerouteNo="0" devices="tripinfo_left_4" vType="passenger" speedFactor="1.03" vaporized=""/>
    <tripinfo id="right_30" depart="11.00" departLane="3c_4" departPos="5.10" departSpeed="0.00" departDelay="6.00" arrival="82.00" arrivalLane="c4_3" arrivalPos="480.00" arrivalSpeed="15.43" duration="71.00" routeLength="995.03" waitingTime="0.00" waitingCount="0" stopTime="0.00" timeLoss="9.63" rerouteNo="0" devices="tripinfo_right_30" vType="passenger" speedFactor="1.18" vaporized=""/>
    <tripinfo id="right_14" depart="2.00" departLane="3c_4" departPos="5.10" departSpeed="0.00" departDelay="0.00" arrival="83.00" arrivalLane="c4_0" arrivalPos="480.00" arrivalSpeed="12.64" duration="81.00" routeLength="995.03" waitingTime="0.00" waitingCount="0" stopTime="0.00" timeLoss="8.69" rerouteNo="0" devices="tripinfo_right_14" vType="passenger" speedFactor="0.99" vaporized=""/>
    <tripinfo id="left_42" depart="8.00" departLane="4c_0" departPos="5.10" departSpeed="0.00" departDelay="2.00" arrival="84.00" arrivalLane="c3_0" arrivalPos="480.00" arrivalSpeed="13.58" duration="76.00" routeLength="995.03" waitingTime="0.00" waitingCount="0" stopTime="0.00" timeLoss="10.26" rerouteNo="0" devices="tripinfo_left_42" vType="passenger" speedFactor="1.09" vaporized=""/>
    <tripinfo id="right_40" depart="6.00" departLane="3c_3" departPos="5.10" departSpeed="0.00" departDelay="0.00" arrival="86.00" arrivalLane="c4_1" arrivalPos="480.00" arrivalSpeed="13.38" duration="80.00" routeLength="995.03" waitingTime="0.00" waitingCount="0" stopTime="0.00" timeLoss="9.88" rerouteNo="0" devices="tripinfo_right_40" vType="passenger" speedFactor="1.03" vaporized=""/>
    <tripinfo id="right_1" depart="0.00" departLane="3c_3" departPos="5.10" departSpeed="0.00" departDelay="0.00" arrival="87.00" arrivalLane="c4_0" arrivalPos="480.00" arrivalSpeed="10.64" duration="87.00" routeLength="995.03" waitingTime="0.00" waitingCount="0" stopTime="0.00" timeLoss="9.96" rerouteNo="0" devices="tripinfo_right_1" vType="passenger" speedFactor="0.94" vaporized=""/>
    <tripinfo id="left_17" depart="2.00" departLane="4c_2" departPos="5.10" departSpeed="0.00" departDelay="0.00" arrival="87.00" arrivalLane="c3_0" arrivalPos="480.00" arrivalSpeed="12.34" duration="85.00" routeLength="995.03" waitingTime="0.00" waitingCount="0" stopTime="0.00" timeLoss="8.60" rerouteNo="0" devices="tripinfo_left_17" vType="passenger" speedFactor="0.94" vaporized=""/>
    <tripinfo id="right_61" depart="12.00" departLane="3c_0" departPos="5.10" departSpeed="0.00" departDelay="3.00" arrival="87.00" arrivalLane="c4_3" arrivalPos="480.00" arrivalSpeed="15.12" duration="75.00" routeLength="995.03" waitingTime="0.00" waitingCount="0" stopTime="0.00" timeLoss="10.26" rerouteNo="0" devices="tripinfo_right_61" vType="passenger" speedFactor="1.12" vaporized=""/>
    <tripinfo id="left_15" depart="2.00" departLane="4c_4" departPos="5.10" departSpeed="0.00" departDelay="0.00" arrival="89.00" arrivalLane="c3_2" arrivalPos="480.00" arrivalSpeed="10.62" duration="87.00" routeLength="995.03" waitingTime="0.00" waitingCount="0" stopTime="0.00" timeLoss="9.63" rerouteNo="0" devices="tripinfo_left_15" vType="passenger" speedFactor="0.93" vaporized=""/>
    <tripinfo id="right_41" depart="6.00" departLane="3c_2" departPos="5.10" departSpeed="0.00" departDelay="0.00" arrival="89.00" arrivalLane="c4_1" arrivalPos="480.00" arrivalSpeed="13.02" duration="83.00" routeLength="995.03" waitingTime="0.00" waitingCount="0" stopTime="0.00" timeLoss="7.30" rerouteNo="0" devices="tripinfo_right_41" vType="passenger" speedFactor="0.96" vaporized=""/>
    <tripinfo id="left_44" depart="7.00" departLane="4c_2" departPos="5.10" departSpeed="0.00" departDelay="1.00" arrival="89.00" arrivalLane="c3_1" arrivalPos="480.00" arrivalSpeed="12.50" duration="82.00" routeLength="995.03" waitingTime="1.00" waitingCount="1" stopTime="0.00" timeLoss="12.98" rerouteNo="0" devices="tripinfo_left_44" vType="passenger" speedFactor="1.04" vaporized=""/>
    <tripinfo id="right_60" depart="10.00" departLane="3c_0" departPos="5.10" departSpeed="0.00" departDelay="1.00" arrival="90.00" arrivalLane="c4_2" arrivalPos="480.00" arrivalSpeed="14.14" duration="80.00" routeLength="995.03" waitingTime="0.00" waitingCount="0" stopTime="0.00" timeLoss="13.63" rerouteNo="0" devices="tripinfo_right_60" vType="passenger" speedFactor="1.08" vaporized=""/>
    <tripinfo id="left_27" depart="4.00" departLane="4c_4" departPos="5.10" departSpeed="0.00" departDelay="0.00" arrival="91.00" arrivalLane="c3_3" arrivalPos="480.00" arrivalSpeed="12.79" duration="87.00" routeLength="995.03" waitingTime="0.00" waitingCount="0" stopTime="0.00" timeLoss="10.98" rerouteNo="0" devices="tripinfo_left_27" vType="passenger" speedFactor="0.95" vaporized=""/>
    <tripinfo id="left_54" depart="9.00" departLane="4c_4" departPos="5.10" departSpeed="0.00" departDelay="1.00" arrival="91.00" arrivalLane="c3_4" arrivalPos="480.00" arrivalSpeed="13.04" duration="82.00" routeLength="995.03" waitingTime="0.00" waitingCount="0" stopTime="0.00" timeLoss="10.13" rerouteNo="0" devices="tripinfo_left_54" vType="passenger" speedFactor="1.00" vaporized=""/>
    <tripinfo id="right_7" depart="1.00" departLane="3c_2" departPos="5.10" departSpeed="0.00" departDelay="0.00" arrival="93.00" arrivalLane="c4_0" arrivalPos="480.00" arrivalSpeed="11.51" duration="92.00" routeLength="995.03" waitingTime="0.00" waitingCount="0" stopTime="0.00" timeLoss="11.03" rerouteNo="0" devices="tripinfo_right_7" vType="passenger" speedFactor="0.89" vaporized=""/>
    <tripinfo id="left_43" depart="11.00" departLane="4c_0" departPos="5.10" departSpeed="0.00" departDelay="5.00" arrival="93.00" arrivalLane="c3_0" arrivalPos="480.00" arrivalSpeed="13.51" duration="82.00" routeLength="995.03" waitingTime="0.00" waitingCount="0" stopTime="0.00" timeLoss="12.24" rerouteNo="0" devices="tripinfo_left_43" vType="passenger" speedFactor="1.04" vaporized=""/>
    <tripinfo id="left_62" depart="11.00" departLane="4c_4" departPos="5.10" departSpeed="0.00" departDelay="2.00" arrival="93.00" arrivalLane="c3_3" arrivalPos="480.00" arrivalSpeed="13.63" duration="82.00" routeLength="995.03" waitingTime="0.00" waitingCount="0" stopTime="0.00" timeLoss="10.82" rerouteNo="0" devices="tripinfo_left_62" vType="passenger" speedFactor="1.02" vaporized=""/>
    <tripinfo id="right_68" depart="16.00" departLane="3c_4" departPos="5.10" departSpeed="0.00" departDelay="5.00" arrival="94.00" arrivalLane="c4_2" arrivalPos="480.00" arrivalSpeed="12.74" duration="78.00" routeLength="995.03" waitingTime="0.00" waitingCount="0" stopTime="0.00" timeLoss="8.83" rerouteNo="0" devices="tripinfo_right_68" vType="passenger" speedFactor="1.04" vaporized=""/>
    <tripinfo id="left_8" depart="8.00" departLane="4c_1" departPos="5.10" departSpeed="0.00" departDelay="7.00" arrival="95.00" arrivalLane="c3_1" arrivalPos="480.00" arrivalSpeed="11.36" duration="87.00" routeLength="995.03" waitingTime="1.00" waitingCount="1" stopTime="0.00" timeLoss="10.34" rerouteNo="0" devices="tripinfo_left_8" vType="passenger" speedFactor="0.94" vaporized=""/>
    <tripinfo id="left_20" depart="6.00" departLane="4c_3" departPos="5.10" departSpeed="0.00" departDelay="3.00" arrival="95.00" arrivalLane="c3_2" arrivalPos="480.00" arrivalSpeed="13.29" duration="89.00" routeLength="995.03" waitingTime="0.00" waitingCount="0" stopTime="0.00" timeLoss="18.29" rerouteNo="0" devices="tripinfo_left_20" vType="passenger" speedFactor="1.02" vaporized=""/>
    <tripinfo id="right_26" depart="6.00" departLane="3c_4" departPos="5.10" departSpeed="0.00" departDelay="2.00" arrival="95.00" arrivalLane="c4_1" arrivalPos="480.00" arrivalSpeed="10.85" duration="89.00" routeLength="995.03" waitingTime="0.00" waitingCount="0" stopTime="0.00" timeLoss="10.23" rerouteNo="0" devices="tripinfo_right_26" vType="passenger" speedFactor="0.92" vaporized=""/>
    <tripinfo id="right_25" depart="4.00" departLane="3c_3" departPos="5.10" departSpeed="0.00" departDelay="0.00" arrival="97.00" arrivalLane="c4_0" arrivalPos="480.00" arrivalSpeed="9.91" duration="93.00" routeLength="995.03" waitingTime="0.00" waitingCount="0" stopTime="0.00" timeLoss="10.67" rerouteNo="0" devices="tripinfo_right_25" vType="passenger" speedFactor="0.87" vaporized=""/>
    <tripinfo id="leftTurn1_38" depart="5.00" departLane="4c_2" departPos="5.10" departSpeed="0.00" departDelay="0.00" arrival="97.00" arrivalLane="c2_2" arrivalPos="480.00" arrivalSpeed="15.26" duration="92.00" routeLength="989.74" waitingTime="15.00" waitingCount="1" stopTime="0.00" timeLoss="27.11" rerouteNo="0" devices="tripinfo_leftTurn1_38" vType="passenger" speedFactor="1.10" vaporized=""/>
    <tripinfo id="leftTurn2_12" depart="1.00" departLane="3c_1" departPos="5.10" departSpeed="0.00" departDelay="0.00" arrival="99.00" arrivalLane="c1_0" arrivalPos="480.00" arrivalSpeed="13.95" duration="98.00" routeLength="989.74" waitingTime="16.00" waitingCount="1" stopTime="0.00" timeLoss="29.76" rerouteNo="0" devices="tripinfo_leftTurn2_12" vType="passenger" speedFactor="1.05" vaporized=""/>
    <tripinfo id="leftTurn2_19" depart="4.00" departLane="3c_4" departPos="5.10" departSpeed="0.00" departDelay="2.00" arrival="99.00" arrivalLane="c1_2" arrivalPos="480.00" arrivalSpeed="14.63" duration="95.00" routeLength="989.74" waitingTime="15.00" waitingCount="1" stopTime="0.00" timeLoss="33.23" rerouteNo="0" devices="tripinfo_leftTurn2_19" vType="passenger" speedFactor="1.16" vaporized=""/>
    <tripinfo id="right_39" depart="8.00" departLane="3c_1" departPos="5.10" departSpeed="0.00" departDelay="2.00" arrival="99.00" arrivalLane="c4_0" arrivalPos="480.00" arrivalSpeed="11.86" duration="91.00" routeLength="995.03" waitingTime="1.00" waitingCount="1" stopTime="0.00" timeLoss="11.41" rerouteNo="0" devices="tripinfo_right_39" vType="passenger" speedFactor="0.90" vaporized=""/>
    <tripinfo id="right_47" depart="8.00" departLane="3c_3" departPos="5.10" departSpeed="0.00" departDelay="1.00" arrival="99.00" arrivalLane="c4_1" arrivalPos="480.00" arrivalSpeed="12.38" duration="91.00" routeLength="995.03" waitingTime="0.00" waitingCount="0" stopTime="0.00" timeLoss="10.88" rerouteNo="0" devices="tripinfo_right_47" vType="passenger" speedFactor="0.90" vaporized=""/>
    <tripinfo id="left_5" depart="2.00" departLane="4c_3" departPos="5.10" departSpeed="0.00" departDelay="2.00" arrival="100.00" arrivalLane="c3_0" arrivalPos="480.00" arrivalSpeed="9.38" duration="98.00" routeLength="995.03" waitingTime="0.00" waitingCount="0" stopTime="0.00" timeLoss="11.53" rerouteNo="0" devices="tripinfo_left_5" vType="passenger" speedFactor="0.83" vaporized=""/>
    <tripinfo id="leftTurn1_37" depart="6.00" departLane="4c_0" departPos="5.10" departSpeed="0.00" departDelay="1.00" arrival="101.00" arrivalLane="c2_2" arrivalPos="480.00" arrivalSpeed="15.66" duration="95.00" routeLength="989.74" waitingTime="0.00" waitingCount="0" stopTime="0.00" timeLoss="34.52" rerouteNo="0" devices="tripinfo_leftTurn1_37" vType="passenger" speedFactor="1.18" vaporized=""/>
    <tripinfo id="left_50" depart="7.00" departLane="4c_4" departPos="5.10" departSpeed="0.00" departDelay="0.00" arrival="103.00" arrivalLane="c3_1" arrivalPos="480.00" arrivalSpeed="10.69" duration="96.00" routeLength="995.03" waitingTime="0.00" waitingCount="0" stopTime="0.00" timeLoss="11.66" rerouteNo="0" devices="tripinfo_left_50" vType="passenger" speedFactor="0.85" vaporized=""/>
    <tripinfo id="left_16" depart="11.00" departLane="4c_1" departPos="5.10" departSpeed="0.00" departDelay="9.00" arrival="104.00" arrivalLane="c3_0" arrivalPos="480.00" arrivalSpeed="11.18" duration="93.00" routeLength="995.03" waitingTime="0.00" waitingCount="0" stopTime="0.00" timeLoss="10.90" rerouteNo="0" devices="tripinfo_left_16" vType="passenger" speedFactor="0.88" vaporized=""/>
    <tripinfo id="leftTurn2_59" depart="8.00" departLane="3c_0" departPos="5.10" departSpeed="0.00" departDelay="0.00" arrival="106.00" arrivalLane="c1_0" arrivalPos="480.00" arrivalSpeed="11.15" duration="98.00" routeLength="989.74" waitingTime="12.00" waitingCount="1" stopTime="0.00" timeLoss="24.13" rerouteNo="0" devices="tripinfo_leftTurn2_59" vType="passenger" speedFactor="0.97" vaporized=""/>
    <tripinfo id="leftTurn1_72" depart="13.00" departLane="4c_4" departPos="5.10" departSpeed="0.00" departDelay="2.00" arrival="111.00" arrivalLane="c2_0" arrivalPos="480.00" arrivalSpeed="10.56" duration="98.00" routeLength="989.74" waitingTime="0.00" waitingCount="0" stopTime="0.00" timeLoss="22.17" rerouteNo="0" devices="tripinfo_leftTurn1_72" vType="passenger" speedFactor="0.94" vaporized=""/>
    <tripinfo id="leftTurn2_85" depart="13.00" departLane="3c_1" departPos="5.10" departSpeed="0.00" departDelay="0.00" arrival="111.00" arrivalLane="c1_0" arrivalPos="480.00" arrivalSpeed="13.40" duration="98.00" routeLength="989.74" waitingTime="6.00" waitingCount="1" stopTime="0.00" timeLoss="24.43" rerouteNo="0" devices="tripinfo_leftTurn2_85" vType="passenger" speedFactor="0.98" vaporized=""/>
    <tripinfo id="leftTurn2_45" depart="8.00" departLane="3c_2" departPos="5.10" departSpeed="0.00" departDelay="2.00" arrival="112.00" arrivalLane="c1_1" arrivalPos="480.00" arrivalSpeed="14.02" duration="104.00" routeLength="989.74" waitingTime="5.00" waitingCount="1" stopTime="0.00" timeLoss="38.32" rerouteNo="0" devices="tripinfo_leftTurn2_45" vType="passenger" speedFactor="1.09" vaporized=""/>
    <tripinfo id="leftTurn1_117" depart="20.00" departLane="4c_4" departPos="5.10" departSpeed="0.00" departDelay="0.00" arrival="112.00" arrivalLane="c2_2" arrivalPos="480.00" arrivalSpeed="12.77" duration="92.00" routeLength="989.74" waitingTime="0.00" waitingCount="0" stopTime="0.00" timeLoss="20.79" rerouteNo="0" devices="tripinfo_leftTurn1_117" vType="passenger" speedFactor="1.00" vaporized=""/>
    <tripinfo id="leftTurn2_77" depart="17.00" departLane="3c_0" departPos="5.10" departSpeed="0.00" departDelay="5.00" arrival="113.00" arrivalLane="c1_1" arrivalPos="480.00" arrivalSpeed="12.14" duration="96.00" routeLength="989.74" waitingTime="6.00" waitingCount="1" stopTime="0.00" timeLoss="23.09" rerouteNo="0" devices="tripinfo_leftTurn2_77" vType="passenger" speedFactor="0.98" vaporized=""/>
    <tripinfo id="leftTurn1_87" depart="19.00" departLane="4c_2" departPos="5.10" departSpeed="0.00" departDelay="5.00" arrival="113.00" arrivalLane="c2_3" arrivalPos="480.00" arrivalSpeed="12.12" duration="94.00" routeLength="989.74" waitingTime="0.00" waitingCount="0" stopTime="0.00" timeLoss="25.29" rerouteNo="0" devices="tripinfo_leftTurn1_87" vType="passenger" speedFactor="1.04" vaporized=""/>
    <tripinfo id="leftTurn1_76" depart="27.00" departLane="4c_1" departPos="5.10" departSpeed="0.00" departDelay="15.00" arrival="114.00" arrivalLane="c2_2" arrivalPos="480.00" arrivalSpeed="12.02" duration="87.00" routeLength="989.74" waitingTime="0.00" waitingCount="0" stopTime="0.00" timeLoss="17.73" rerouteNo="0" devices="tripinfo_leftTurn1_76" vType="passenger" speedFactor="1.03" vaporized=""/>
    <tripinfo id="rightTurn1_174" depart="31.00" departLane="2c_0" departPos="5.10" departSpeed="0.00" departDelay="0.00" arrival="114.00" arrivalLane="c4_0" arrivalPos="480.00" arrivalSpeed="13.12" duration="83.00" routeLength="963.93" waitingTime="0.00" waitingCount="0" stopTime="0.00" timeLoss="10.03" rerouteNo="0" devices="tripinfo_rightTurn1_174" vType="passenger" speedFactor="0.96" vaporized=""/>
    <tripinfo id="leftTurn2_89" depart="20.00" departLane="3c_4" departPos="5.10" departSpeed="0.00" departDelay="6.00" arrival="116.00" arrivalLane="c1_1" arrivalPos="480.00" arrivalSpeed="13.15" duration="96.00" routeLength="989.74" waitingTime="4.00" waitingCount="1" stopTime="0.00" timeLoss="25.41" rerouteNo="0" devices="tripinfo_leftTurn2_89" vType="passenger" speedFactor="1.02" vaporized=""/>
    <tripinfo id="leftTurn1_88" depart="27.00" departLane="4c_3" departPos="5.10" departSpeed="0.00" departDelay="13.00" arrival="117.00" arrivalLane="c2_1" arrivalPos="480.00" arrivalSpeed="12.56" duration="90.00" routeLength="989.74" waitingTime="0.00" waitingCount="0" stopTime="0.00" timeLoss="18.51" rerouteNo="0" devices="tripinfo_leftTurn1_88" vType="passenger" speedFactor="1.01" vaporized=""/>
    <tripinfo id="leftTurn2_126" depart="25.00" departLane="3c_1" departPos="5.10" departSpeed="0.00" departDelay="3.00" arrival="117.00" arrivalLane="c1_1" arrivalPos="480.00" arrivalSpeed="11.92" duration="92.00" routeLength="989.74" waitingTime="3.00" waitingCount="1" stopTime="0.00" timeLoss="22.85" rerouteNo="0" devices="tripinfo_leftTurn2_126" vType="passenger" speedFactor="1.03" vaporized=""/>
    <tripinfo id="leftTurn2_24" depart="6.00" departLane="3c_1" departPos="5.10" departSpeed="0.00" departDelay="3.00" arrival="118.00" arrivalLane="c1_0" arrivalPos="480.00" arrivalSpeed="9.06" duration="112.00" routeLength="989.74" waitingTime="7.00" waitingCount="1" stopTime="0.00" timeLoss="24.97" rerouteNo="0" devices="tripinfo_leftTurn2_24" vType="passenger" speedFactor="0.83" vaporized=""/>
    <tripinfo id="leftTurn2_73" depart="15.00" departLane="3c_3" departPos="5.10" departSpeed="0.00" departDelay="4.00" arrival="119.00" arrivalLane="c1_1" arrivalPos="480.00" arrivalSpeed="13.90" duration="104.00" routeLength="989.74" waitingTime="3.00" waitingCount="1" stopTime="0.00" timeLoss="35.57" rerouteNo="0" devices="tripinfo_leftTurn2_73" vType="passenger" speedFactor="1.06" vaporized=""/>
    <tripinfo id="right_119" depart="21.00" departLane="3c_1" departPos="5.10" departSpeed="0.00" departDelay="0.00" arrival="120.00" arrivalLane="c4_0" arrivalPos="480.00" arrivalSpeed="12.72" duration="99.00" routeLength="995.03" waitingTime="20.00" waitingCount="1" stopTime="0.00" timeLoss="31.32" rerouteNo="0" devices="tripinfo_right_119" vType="passenger" speedFactor="1.07" vaporized=""/>
    <tripinfo id="leftTurn1_6" depart="5.00" departLane="4c_1" departPos="10.10" departSpeed="0.00" departDelay="5.00" arrival="122.00" arrivalLane="c2_0" arrivalPos="480.00" arrivalSpeed="8.37" duration="117.00" routeLength="984.74" waitingTime="0.00" waitingCount="0" stopTime="0.00" timeLoss="17.76" rerouteNo="0" devices="tripinfo_leftTurn1_6" vType="truck" speedFactor="1.05" vaporized=""/>
    <tripinfo id="left_70" depart="15.00" departLane="4c_2" departPos="5.10" departSpeed="0.00" departDelay="4.00" arrival="122.00" arrivalLane="c3_1" arrivalPos="480.00" arrivalSpeed="11.96" duration="107.00" routeLength="995.03" waitingTime="20.00" waitingCount="1" stopTime="0.00" timeLoss="36.72" rerouteNo="0" devices="tripinfo_left_70" vType="passenger" speedFactor="1.02" vaporized=""/>
    <tripinfo id="right_78" depart="18.00" departLane="3c_4" departPos="5.10" departSpeed="0.00" departDelay="5.00" arrival="122.00" arrivalLane="c4_2" arrivalPos="480.00" arrivalSpeed="11.57" duration="104.00" routeLength="995.03" waitingTime="17.00" waitingCount="1" stopTime="0.00" timeLoss="32.86" rerouteNo="0" devices="tripinfo_right_78" vType="passenger" speedFactor="1.01" vaporized=""/>
    <tripinfo id="left_116" depart="20.00" departLane="4c_0" departPos="5.10" departSpeed="0.00" departDelay="0.00" arrival="122.00" arrivalLane="c3_0" arrivalPos="480.00" arrivalSpeed="14.44" duration="102.00" routeLength="995.03" waitingTime="19.00" waitingCount="1" stopTime="0.00" timeLoss="40.32" rerouteNo="0" devices="tripinfo_left_116" vType="passenger" speedFactor="1.18" vaporized=""/>
    <tripinfo id="right_46" depart="13.00" departLane="3c_4" departPos="5.10" departSpeed="0.00" departDelay="6.00" arrival="123.00" arrivalLane="c4_1" arrivalPos="480.00" arrivalSpeed="12.09" duration="110.00" routeLength="995.03" waitingTime="20.00" waitingCount="1" stopTime="0.00" timeLoss="38.11" rerouteNo="0" devices="tripinfo_right_46" vType="passenger" speedFactor="1.00" vaporized=""/>
    <tripinfo id="left_80" depart="17.00" departLane="4c_2" departPos="5.10" departSpeed="0.00" departDelay="4.00" arrival="123.00" arrivalLane="c3_3" arrivalPos="480.00" arrivalSpeed="11.90" duration="106.00" routeLength="995.03" waitingTime="18.00" waitingCount="1" stopTime="0.00" timeLoss="36.04" rerouteNo="0" devices="tripinfo_left_80" vType="passenger" speedFactor="1.03" vaporized=""/>
    <tripinfo id="right_98" depart="23.00" departLane="3c_0" departPos="5.10" departSpeed="0.00" departDelay="6.00" arrival="123.00" arrivalLane="c4_0" arrivalPos="480.00" arrivalSpeed="13.15" duration="100.00" routeLength="995.03" waitingTime="14.00" waitingCount="1" stopTime="0.00" timeLoss="36.05" rerouteNo="0" devices="tripinfo_right_98" vType="passenger" speedFactor="1.12" vaporized=""/>
    <tripinfo id="leftTurn2_67" depart="13.00" departLane="3c_3" departPos="5.10" departSpeed="0.00" departDelay="3.00" arrival="125.00" arrivalLane="c1_0" arrivalPos="480.00" arrivalSpeed="11.22" duration="112.00" routeLength="989.74" waitingTime="2.00" waitingCount="1" stopTime="0.00" timeLoss="33.90" rerouteNo="0" devices="tripinfo_leftTurn2_67" vType="passenger" speedFactor="0.91" vaporized=""/>
    <tripinfo id="right_123" depart="23.00" departLane="3c_1" departPos="5.10" departSpeed="0.00" departDelay="1.00" arrival="125.00" arrivalLane="c4_1" arrivalPos="480.00" arrivalSpeed="11.95" duration="102.00" routeLength="995.03" waitingTime="19.00" waitingCount="1" stopTime="0.00" timeLoss="31.61" rerouteNo="0" devices="tripinfo_right_123" vType="passenger" speedFactor="1.02" vaporized=""/>
    <tripinfo id="right_102" depart="18.00" departLane="3c_2" departPos="5.10" departSpeed="0.00" departDelay="0.00" arrival="126.00" arrivalLane="c4_2" arrivalPos="480.00" arrivalSpeed="11.11" duration="108.00" routeLength="995.03" waitingTime="20.00" waitingCount="2" stopTime="0.00" timeLoss="33.72" rerouteNo="0" devices="tripinfo_right_102" vType="passenger" speedFactor="0.97" vaporized=""/>
    <tripinfo id="left_18" depart="14.00" departLane="4c_1" departPos="5.10" departSpeed="0.00" departDelay="12.00" arrival="127.00" arrivalLane="c3_0" arrivalPos="480.00" arrivalSpeed="11.52" duration="113.00" routeLength="995.03" waitingTime="20.00" waitingCount="1" stopTime="0.00" timeLoss="36.34" rerouteNo="0" devices="tripinfo_left_18" vType="passenger" speedFactor="0.94" vaporized=""/>
    <tripinfo id="right_113" depart="26.00" departLane="3c_0" departPos="5.10" departSpeed="0.00" departDelay="6.00" arrival="127.00" arrivalLane="c4_0" arrivalPos="480.00" arrivalSpeed="12.96" duration="101.00" routeLength="995.03" waitingTime="15.00" waitingCount="1" stopTime="0.00" timeLoss="29.59" rerouteNo="0" devices="tripinfo_right_113" vType="passenger" speedFactor="1.01" vaporized=""/>
    <tripinfo id="left_32" depart="16.00" departLane="4c_1" departPos="5.10" departSpeed="0.00" departDelay="11.00" arrival="128.00" arrivalLane="c3_1" arrivalPos="480.00" arrivalSpeed="11.73" duration="112.00" routeLength="995.03" waitingTime="17.00" waitingCount="1" stopTime="0.00" timeLoss="40.62" rerouteNo="0" devices="tripinfo_left_32" vType="passenger" speedFactor="1.01" vaporized=""/>
    <tripinfo id="right_90" depart="18.00" departLane="3c_3" departPos="5.10" departSpeed="0.00" departDelay="3.00" arrival="128.00" arrivalLane="c4_3" arrivalPos="480.00" arrivalSpeed="13.51" duration="110.00" routeLength="995.03" waitingTime="13.00" waitingCount="1" stopTime="0.00" timeLoss="38.78" rerouteNo="0" devices="tripinfo_right_90" vType="passenger" speedFactor="1.02" vaporized=""/>
    <tripinfo id="right_159" depart="31.00" departLane="3c_0" departPos="5.10" departSpeed="0.00" departDelay="2.00" arrival="128.00" arrivalLane="c4_2" arrivalPos="480.00" arrivalSpeed="15.60" duration="97.00" routeLength="995.03" waitingTime="14.00" waitingCount="1" stopTime="0.00" timeLoss="33.80" rerouteNo="0" devices="tripinfo_right_159" vType="passenger" speedFactor="1.14" vaporized=""/>
    <tripinfo id="right_86" depart="21.00" departLane="3c_0" departPos="5.10" departSpeed="0.00" departDelay="7.00" arrival="129.00" arrivalLane="c4_0" arrivalPos="480.00" arrivalSpeed="13.24" duration="108.00" routeLength="995.03" waitingTime="14.00" waitingCount="1" stopTime="0.00" timeLoss="35.99" rerouteNo="0" devices="tripinfo_right_86" vType="passenger" speedFactor="1.00" vaporized=""/>
    <tripinfo id="left_122" depart="24.00" departLane="4c_0" departPos="5.10" departSpeed="0.00" departDelay="3.00" arrival="130.00" arrivalLane="c3_0" arrivalPos="480.00" arrivalSpeed="13.51" duration="106.00" routeLength="995.03" waitingTime="17.00" waitingCount="1" stopTime="0.00" timeLoss="36.06" rerouteNo="0" devices="tripinfo_left_122" vType="passenger" speedFactor="1.03" vaporized=""/>
    <tripinfo id="left_9" depart="4.00" departLane="4c_3" departPos="5.10" departSpeed="0.00" departDelay="3.00" arrival="131.00" arrivalLane="c3_3" arrivalPos="480.00" arrivalSpeed="11.56" duration="127.00" routeLength="995.03" waitingTime="20.00" waitingCount="1" stopTime="0.00" timeLoss="42.74" rerouteNo="0" devices="tripinfo_left_9" vType="passenger" speedFactor="0.86" vaporized=""/>
    <tripinfo id="left_49" depart="10.00" departLane="4c_2" departPos="5.10" departSpeed="0.00" departDelay="3.00" arrival="131.00" arrivalLane="c3_2" arrivalPos="480.00" arrivalSpeed="10.94" duration="121.00" routeLength="995.03" waitingTime="19.00" waitingCount="1" stopTime="0.00" timeLoss="36.11" rerouteNo="0" devices="tripinfo_left_49" vType="passenger" speedFactor="0.85" vaporized=""/>
    <tripinfo id="right_118" depart="25.00" departLane="3c_4" departPos="5.10" departSpeed="0.00" departDelay="4.00" arrival="131.00" arrivalLane="c4_3" arrivalPos="480.00" arrivalSpeed="13.49" duration="106.00" routeLength="995.03" waitingTime="12.00" waitingCount="1" stopTime="0.00" timeLoss="33.14" rerouteNo="0" devices="tripinfo_right_118" vType="passenger" speedFactor="0.99" vaporized=""/>
    <tripinfo id="right_156" depart="33.00" departLane="3c_1" departPos="5.10" departSpeed="0.00" departDelay="4.00" arrival="131.00" arrivalLane="c4_2" arrivalPos="480.00" arrivalSpeed="15.47" duration="98.00" routeLength="995.03" waitingTime="12.00" waitingCount="1" stopTime="0.00" timeLoss="36.32" rerouteNo="0" devices="tripinfo_right_156" vType="passenger" speedFactor="1.18" vaporized=""/>
    <tripinfo id="left_180" depart="33.00" departLane="4c_0" departPos="5.10" departSpeed="0.00" departDelay="0.00" arrival="131.00" arrivalLane="c3_1" arrivalPos="480.00" arrivalSpeed="15.16" duration="98.00" routeLength="995.03" waitingTime="15.00" waitingCount="1" stopTime="0.00" timeLoss="32.80" rerouteNo="0" devices="tripinfo_left_180" vType="passenger" speedFactor="1.10" vaporized=""/>