<?xml version="1.0" encoding="UTF-8"?>

<!-- generated on 2024-06-10 00:33:18 by Eclipse SUMO GUI Version 1.20.0
<configuration xmlns:xsi="http://www.w3.org/2001/XMLSchema-instance" xsi:noNamespaceSchemaLocation="http://sumo.dlr.de/xsd/sumoConfiguration.xsd">

    <input>
        <net-file value="config/cross.net.xml"/>
        <route-files value="config/cross.rou.xml"/>
        <additional-files value="config/cross.det.xml"/>
    </input>

    <output>
        <queue-output value="queueinfo.xml"/>
        <tripinfo-output value="tripinfo.xml"/>
    </output>

    <time>
        <begin value="0"/>
    </time>

    <report>
        <verbose value="true"/>
        <no-step-log value="true"/>
    </report>

    <traci_server>
        <remote-port value="62939"/>
    </traci_server>

</configuration>
-->

<tripinfos xmlns:xsi="http://www.w3.org/2001/XMLSchema-instance" xsi:noNamespaceSchemaLocation="http://sumo.dlr.de/xsd/tripinfo_file.xsd">
    <tripinfo id="left_0" depart="0.00" departLane="4c_4" departPos="5.10" departSpeed="0.00" departDelay="0.00" arrival="75.00" arrivalLane="c3_0" arrivalPos="480.00" arrivalSpeed="14.19" duration="75.00" routeLength="995.03" waitingTime="0.00" waitingCount="0" stopTime="0.00" timeLoss="7.40" rerouteNo="0" devices="tripinfo_left_0" vType="passenger" speedFactor="1.06" vaporized=""/>
    <tripinfo id="left_3" depart="2.00" departLane="4c_3" departPos="5.10" departSpeed="0.00" departDelay="2.00" arrival="76.00" arrivalLane="c3_2" arrivalPos="480.00" arrivalSpeed="13.96" duration="74.00" routeLength="995.03" waitingTime="0.00" waitingCount="0" stopTime="0.00" timeLoss="7.56" rerouteNo="0" devices="tripinfo_left_3" vType="passenger" speedFactor="1.08" vaporized=""/>
    <tripinfo id="left_2" depart="0.00" departLane="4c_1" departPos="5.10" departSpeed="0.00" departDelay="0.00" arrival="80.00" arrivalLane="c3_0" arrivalPos="480.00" arrivalSpeed="11.62" duration="80.00" routeLength="995.03" waitingTime="0.00" waitingCount="0" stopTime="0.00" timeLoss="8.79" rerouteNo="0" devices="tripinfo_left_2" vType="passenger" speedFactor="1.01" vaporized=""/>
    <tripinfo id="left_12" depart="2.00" departLane="4c_1" departPos="5.10" departSpeed="0.00" departDelay="0.00" arrival="80.00" arrivalLane="c3_1" arrivalPos="480.00" arrivalSpeed="13.62" duration="78.00" routeLength="995.03" waitingTime="0.00" waitingCount="0" stopTime="0.00" timeLoss="8.66" rerouteNo="0" devices="tripinfo_left_12" vType="passenger" speedFactor="1.05" vaporized=""/>
    <tripinfo id="left_19" depart="5.00" departLane="4c_4" departPos="5.10" departSpeed="0.00" departDelay="0.00" arrival="80.00" arrivalLane="c3_3" arrivalPos="480.00" arrivalSpeed="14.19" duration="75.00" routeLength="995.03" waitingTime="0.00" waitingCount="0" stopTime="0.00" timeLoss="12.92" rerouteNo="0" devices="tripinfo_left_19" vType="passenger" speedFactor="1.16" vaporized=""/>
    <tripinfo id="left_37" depart="10.00" departLane="4c_0" departPos="5.10" departSpeed="0.00" departDelay="2.00" arrival="81.00" arrivalLane="c3_2" arrivalPos="480.00" arrivalSpeed="14.38" duration="71.00" routeLength="995.03" waitingTime="0.00" waitingCount="0" stopTime="0.00" timeLoss="9.46" rerouteNo="0" devices="tripinfo_left_37" vType="passenger" speedFactor="1.18" vaporized=""/>
    <tripinfo id="right_51" depart="13.00" departLane="3c_1" departPos="5.10" departSpeed="0.00" departDelay="1.00" arrival="81.00" arrivalLane="c4_0" arrivalPos="480.00" arrivalSpeed="13.84" duration="68.00" routeLength="995.03" waitingTime="0.00" waitingCount="0" stopTime="0.00" timeLoss="6.45" rerouteNo="0" devices="tripinfo_right_51" vType="passenger" speedFactor="1.17" vaporized=""/>
    <tripinfo id="left_30" depart="7.00" departLane="4c_4" departPos="5.10" departSpeed="0.00" departDelay="0.00" arrival="82.00" arrivalLane="c3_3" arrivalPos="480.00" arrivalSpeed="15.16" duration="75.00" routeLength="995.03" waitingTime="0.00" waitingCount="0" stopTime="0.00" timeLoss="13.71" rerouteNo="0" devices="tripinfo_left_30" vType="passenger" speedFactor="1.18" vaporized=""/>
    <tripinfo id="left_20" depart="5.00" departLane="4c_3" departPos="5.10" departSpeed="0.00" departDelay="0.00" arrival="84.00" arrivalLane="c3_2" arrivalPos="480.00" arrivalSpeed="12.18" duration="79.00" routeLength="995.03" waitingTime="0.00" waitingCount="0" stopTime="0.00" timeLoss="8.41" rerouteNo="0" devices="tripinfo_left_20" vType="passenger" speedFactor="1.02" vaporized=""/>
    <tripinfo id="left_1" depart="0.00" departLane="4c_3" departPos="5.10" departSpeed="0.00" departDelay="0.00" arrival="86.00" arrivalLane="c3_0" arrivalPos="480.00" arrivalSpeed="11.55" duration="86.00" routeLength="995.03" waitingTime="0.00" waitingCount="0" stopTime="0.00" timeLoss="8.79" rerouteNo="0" devices="tripinfo_left_1" vType="passenger" speedFactor="0.94" vaporized=""/>
    <tripinfo id="left_35" depart="8.00" departLane="4c_2" departPos="5.10" departSpeed="0.00" departDelay="0.00" arrival="89.00" arrivalLane="c3_1" arrivalPos="480.00" arrivalSpeed="12.11" duration="81.00" routeLength="995.03" waitingTime="0.00" waitingCount="0" stopTime="0.00" timeLoss="10.75" rerouteNo="0" devices="tripinfo_left_35" vType="passenger" speedFactor="1.02" vaporized=""/>
    <tripinfo id="left_42" depart="12.00" departLane="4c_0" departPos="5.10" departSpeed="0.00" departDelay="2.00" arrival="89.00" arrivalLane="c3_2" arrivalPos="480.00" arrivalSpeed="14.62" duration="77.00" routeLength="995.03" waitingTime="0.00" waitingCount="0" stopTime="0.00" timeLoss="10.76" rerouteNo="0" devices="tripinfo_left_42" vType="passenger" speedFactor="1.09" vaporized=""/>
    <tripinfo id="left_17" depart="4.00" departLane="4c_2" departPos="5.10" departSpeed="0.00" departDelay="0.00" arrival="90.00" arrivalLane="c3_0" arrivalPos="480.00" arrivalSpeed="12.04" duration="86.00" routeLength="995.03" waitingTime="0.00" waitingCount="0" stopTime="0.00" timeLoss="9.44" rerouteNo="0" devices="tripinfo_left_17" vType="passenger" speedFactor="0.94" vaporized=""/>
    <tripinfo id="right_84" depart="18.00" departLane="3c_1" departPos="5.10" departSpeed="0.00" departDelay="0.00" arrival="90.00" arrivalLane="c4_1" arrivalPos="480.00" arrivalSpeed="14.38" duration="72.00" routeLength="995.03" waitingTime="0.00" waitingCount="0" stopTime="0.00" timeLoss="8.93" rerouteNo="0" devices="tripinfo_right_84" vType="passenger" speedFactor="1.15" vaporized=""/>
    <tripinfo id="left_43" depart="14.00" departLane="4c_0" departPos="5.10" departSpeed="0.00" departDelay="4.00" arrival="91.00" arrivalLane="c3_2" arrivalPos="480.00" arrivalSpeed="13.56" duration="77.00" routeLength="995.03" waitingTime="0.00" waitingCount="0" stopTime="0.00" timeLoss="7.85" rerouteNo="0" devices="tripinfo_left_43" vType="passenger" speedFactor="1.04" vaporized=""/>
    <tripinfo id="left_54" depart="12.00" departLane="4c_4" departPos="5.10" departSpeed="0.00" departDelay="0.00" arrival="92.00" arrivalLane="c3_4" arrivalPos="480.00" arrivalSpeed="12.87" duration="80.00" routeLength="995.03" waitingTime="0.00" waitingCount="0" stopTime="0.00" timeLoss="8.35" rerouteNo="0" devices="tripinfo_left_54" vType="passenger" speedFactor="1.00" vaporized=""/>
    <tripinfo id="left_36" depart="9.00" departLane="4c_4" departPos="5.10" departSpeed="0.00" departDelay="1.00" arrival="93.00" arrivalLane="c3_3" arrivalPos="480.00" arrivalSpeed="12.41" duration="84.00" routeLength="995.03" waitingTime="0.00" waitingCount="0" stopTime="0.00" timeLoss="9.60" rerouteNo="0" devices="tripinfo_left_36" vType="passenger" speedFactor="0.97" vaporized=""/>
    <tripinfo id="left_73" depart="15.00" departLane="4c_3" departPos="5.10" departSpeed="0.00" departDelay="0.00" arrival="94.00" arrivalLane="c3_4" arrivalPos="480.00" arrivalSpeed="12.50" duration="79.00" routeLength="995.03" waitingTime="0.00" waitingCount="0" stopTime="0.00" timeLoss="10.69" rerouteNo="0" devices="tripinfo_left_73" vType="passenger" speedFactor="1.06" vaporized=""/>
    <tripinfo id="left_80" depart="16.00" departLane="4c_2" departPos="5.10" departSpeed="0.00" departDelay="0.00" arrival="94.00" arrivalLane="c3_3" arrivalPos="480.00" arrivalSpeed="12.06" duration="78.00" routeLength="995.03" waitingTime="0.00" waitingCount="0" stopTime="0.00" timeLoss="8.63" rerouteNo="0" devices="tripinfo_left_80" vType="passenger" speedFactor="1.03" vaporized=""/>
    <tripinfo id="right_41" depart="10.00" departLane="3c_2" departPos="5.10" departSpeed="0.00" departDelay="0.00" arrival="96.00" arrivalLane="c4_0" arrivalPos="480.00" arrivalSpeed="10.94" duration="86.00" routeLength="995.03" waitingTime="0.00" waitingCount="0" stopTime="0.00" timeLoss="10.41" rerouteNo="0" devices="tripinfo_right_41" vType="passenger" speedFactor="0.96" vaporized=""/>
    <tripinfo id="right_11" depart="3.00" departLane="3c_2" departPos="5.10" departSpeed="0.00" departDelay="1.00" arrival="97.00" arrivalLane="c4_1" arrivalPos="480.00" arrivalSpeed="13.09" duration="94.00" routeLength="995.03" waitingTime="1.00" waitingCount="1" stopTime="0.00" timeLoss="23.35" rerouteNo="0" devices="tripinfo_right_11" vType="passenger" speedFactor="1.03" vaporized=""/>
    <tripinfo id="left_16" depart="5.00" departLane="4c_1" departPos="5.10" departSpeed="0.00" departDelay="1.00" arrival="97.00" arrivalLane="c3_0" arrivalPos="480.00" arrivalSpeed="11.70" duration="92.00" routeLength="995.03" waitingTime="0.00" waitingCount="0" stopTime="0.00" timeLoss="10.19" rerouteNo="0" devices="tripinfo_left_16" vType="passenger" speedFactor="0.88" vaporized=""/>
    <tripinfo id="right_5" depart="1.00" departLane="3c_3" departPos="5.10" departSpeed="0.00" departDelay="0.00" arrival="100.00" arrivalLane="c4_0" arrivalPos="480.00" arrivalSpeed="9.63" duration="99.00" routeLength="995.03" waitingTime="0.00" waitingCount="0" stopTime="0.00" timeLoss="12.15" rerouteNo="0" devices="tripinfo_right_5" vType="passenger" speedFactor="0.83" vaporized=""/>
    <tripinfo id="leftTurn1_28" depart="6.00" departLane="4c_0" departPos="5.10" departSpeed="0.00" departDelay="0.00" arrival="100.00" arrivalLane="c2_2" arrivalPos="480.00" arrivalSpeed="14.28" duration="94.00" routeLength="989.74" waitingTime="14.00" waitingCount="1" stopTime="0.00" timeLoss="30.27" rerouteNo="0" devices="tripinfo_leftTurn1_28" vType="passenger" speedFactor="1.13" vaporized=""/>
    <tripinfo id="leftTurn2_4" depart="0.00" departLane="3c_1" departPos="5.10" departSpeed="0.00" departDelay="0.00" arrival="101.00" arrivalLane="c1_0" arrivalPos="480.00" arrivalSpeed="12.19" duration="101.00" routeLength="989.74" waitingTime="18.00" waitingCount="1" stopTime="0.00" timeLoss="31.21" rerouteNo="0" devices="tripinfo_leftTurn2_4" vType="passenger" speedFactor="1.03" vaporized=""/>
    <tripinfo id="leftTurn2_10" depart="1.00" departLane="3c_2" departPos="5.10" departSpeed="0.00" departDelay="0.00" arrival="101.00" arrivalLane="c1_1" arrivalPos="480.00" arrivalSpeed="14.79" duration="100.00" routeLength="989.74" waitingTime="17.00" waitingCount="1" stopTime="0.00" timeLoss="33.70" rerouteNo="0" devices="tripinfo_leftTurn2_10" vType="passenger" speedFactor="1.09" vaporized=""/>
    <tripinfo id="leftTurn1_14" depart="3.00" departLane="4c_4" departPos="5.10" departSpeed="0.00" departDelay="0.00" arrival="102.00" arrivalLane="c2_1" arrivalPos="480.00" arrivalSpeed="11.81" duration="99.00" routeLength="989.74" waitingTime="15.00" waitingCount="1" stopTime="0.00" timeLoss="26.35" rerouteNo="0" devices="tripinfo_leftTurn1_14" vType="passenger" speedFactor="0.99" vaporized=""/>
    <tripinfo id="right_15" depart="4.00" departLane="3c_4" departPos="12.10" departSpeed="0.00" departDelay="0.00" arrival="102.00" arrivalLane="c4_1" arrivalPos="480.00" arrivalSpeed="9.74" duration="98.00" routeLength="988.03" waitingTime="0.00" waitingCount="0" stopTime="0.00" timeLoss="15.12" rerouteNo="0" devices="tripinfo_right_15" vType="bus" speedFactor="0.93" vaporized=""/>
    <tripinfo id="left_53" depart="13.00" departLane="4c_1" departPos="5.10" departSpeed="0.00" departDelay="1.00" arrival="102.00" arrivalLane="c3_2" arrivalPos="480.00" arrivalSpeed="14.56" duration="89.00" routeLength="995.03" waitingTime="3.00" waitingCount="1" stopTime="0.00" timeLoss="23.49" rerouteNo="0" devices="tripinfo_left_53" vType="passenger" speedFactor="1.10" vaporized=""/>
    <tripinfo id="left_48" depart="11.00" departLane="4c_1" departPos="5.10" departSpeed="0.00" departDelay="0.00" arrival="103.00" arrivalLane="c3_0" arrivalPos="480.00" arrivalSpeed="12.11" duration="92.00" routeLength="995.03" waitingTime="0.00" waitingCount="0" stopTime="0.00" timeLoss="10.28" rerouteNo="0" devices="tripinfo_left_48" vType="passenger" speedFactor="0.88" vaporized=""/>
    <tripinfo id="left_25" depart="7.00" departLane="4c_3" departPos="5.10" departSpeed="0.00" departDelay="1.00" arrival="104.00" arrivalLane="c3_1" arrivalPos="480.00" arrivalSpeed="11.83" duration="97.00" routeLength="995.03" waitingTime="0.00" waitingCount="0" stopTime="0.00" timeLoss="14.06" rerouteNo="0" devices="tripinfo_left_25" vType="passenger" speedFactor="0.87" vaporized=""/>
    <tripinfo id="right_34" depart="10.00" departLane="3c_3" departPos="5.10" departSpeed="0.00" departDelay="2.00" arrival="105.00" arrivalLane="c4_2" arrivalPos="480.00" arrivalSpeed="12.62" duration="95.00" routeLength="995.03" waitingTime="0.00" waitingCount="0" stopTime="0.00" timeLoss="22.88" rerouteNo="0" devices="tripinfo_right_34" vType="passenger" speedFactor="0.99" vaporized=""/>
    <tripinfo id="right_46" depart="11.00" departLane="3c_4" departPos="5.10" departSpeed="0.00" departDelay="0.00" arrival="105.00" arrivalLane="c4_3" arrivalPos="480.00" arrivalSpeed="13.12" duration="94.00" routeLength="995.03" waitingTime="3.00" waitingCount="2" stopTime="0.00" timeLoss="21.67" rerouteNo="0" devices="tripinfo_right_46" vType="passenger" speedFactor="1.00" vaporized=""/>
    <tripinfo id="left_61" depart="21.00" departLane="4c_0" departPos="5.10" departSpeed="0.00" departDelay="8.00" arrival="105.00" arrivalLane="c3_1" arrivalPos="480.00" arrivalSpeed="14.17" duration="84.00" routeLength="995.03" waitingTime="3.00" waitingCount="1" stopTime="0.00" timeLoss="19.75" rerouteNo="0" devices="tripinfo_left_61" vType="passenger" speedFactor="1.12" vaporized=""/>
    <tripinfo id="left_69" depart="15.00" departLane="4c_1" departPos="5.10" departSpeed="0.00" departDelay="1.00" arrival="106.00" arrivalLane="c3_2" arrivalPos="480.00" arrivalSpeed="13.95" duration="91.00" routeLength="995.03" waitingTime="2.00" waitingCount="1" stopTime="0.00" timeLoss="20.59" rerouteNo="0" devices="tripinfo_left_69" vType="passenger" speedFactor="1.02" vaporized=""/>
    <tripinfo id="right_77" depart="16.00" departLane="3c_0" departPos="5.10" departSpeed="0.00" departDelay="0.00" arrival="106.00" arrivalLane="c4_0" arrivalPos="480.00" arrivalSpeed="13.46" duration="90.00" routeLength="995.03" waitingTime="3.00" waitingCount="1" stopTime="0.00" timeLoss="16.88" rerouteNo="0" devices="tripinfo_right_77" vType="passenger" speedFactor="0.98" vaporized=""/>
    <tripinfo id="right_82" depart="20.00" departLane="3c_4" departPos="5.10" departSpeed="0.00" departDelay="3.00" arrival="106.00" arrivalLane="c4_4" arrivalPos="480.00" arrivalSpeed="14.04" duration="86.00" routeLength="995.03" waitingTime="0.00" waitingCount="0" stopTime="0.00" timeLoss="15.41" rerouteNo="0" devices="tripinfo_right_82" vType="passenger" speedFactor="1.02" vaporized=""/>
    <tripinfo id="left_59" depart="16.00" departLane="4c_0" departPos="5.10" departSpeed="0.00" departDelay="3.00" arrival="107.00" arrivalLane="c3_0" arrivalPos="480.00" arrivalSpeed="11.99" duration="91.00" routeLength="995.03" waitingTime="4.00" waitingCount="1" stopTime="0.00" timeLoss="16.98" rerouteNo="0" devices="tripinfo_left_59" vType="passenger" speedFactor="0.97" vaporized=""/>
    <tripinfo id="left_89" depart="19.00" departLane="4c_4" departPos="5.10" departSpeed="0.00" departDelay="0.00" arrival="107.00" arrivalLane="c3_4" arrivalPos="480.00" arrivalSpeed="11.91" duration="88.00" routeLength="995.03" waitingTime="2.00" waitingCount="1" stopTime="0.00" timeLoss="17.11" rerouteNo="0" devices="tripinfo_left_89" vType="passenger" speedFactor="1.02" vaporized=""/>
    <tripinfo id="right_98" depart="25.00" departLane="3c_0" departPos="5.10" departSpeed="0.00" departDelay="4.00" arrival="107.00" arrivalLane="c4_1" arrivalPos="480.00" arrivalSpeed="15.37" duration="82.00" routeLength="995.03" waitingTime="0.00" waitingCount="0" stopTime="0.00" timeLoss="17.46" rerouteNo="0" devices="tripinfo_right_98" vType="passenger" speedFactor="1.12" vaporized=""/>
    <tripinfo id="right_123" depart="24.00" departLane="3c_1" departPos="5.10" departSpeed="0.00" departDelay="0.00" arrival="107.00" arrivalLane="c4_3" arrivalPos="480.00" arrivalSpeed="12.70" duration="83.00" routeLength="995.03" waitingTime="0.00" waitingCount="0" stopTime="0.00" timeLoss="12.37" rerouteNo="0" devices="tripinfo_right_123" vType="passenger" speedFactor="1.02" vaporized=""/>
    <tripinfo id="left_72" depart="15.00" departLane="4c_4" departPos="5.10" departSpeed="0.00" departDelay="0.00" arrival="108.00" arrivalLane="c3_2" arrivalPos="480.00" arrivalSpeed="10.93" duration="93.00" routeLength="995.03" waitingTime="2.00" waitingCount="1" stopTime="0.00" timeLoss="16.29" rerouteNo="0" devices="tripinfo_left_72" vType="passenger" speedFactor="0.94" vaporized=""/>
    <tripinfo id="right_99" depart="22.00" departLane="3c_2" departPos="5.10" departSpeed="0.00" departDelay="1.00" arrival="108.00" arrivalLane="c4_4" arrivalPos="480.00" arrivalSpeed="14.38" duration="86.00" routeLength="995.03" waitingTime="1.00" waitingCount="1" stopTime="0.00" timeLoss="20.18" rerouteNo="0" devices="tripinfo_right_99" vType="passenger" speedFactor="1.10" vaporized=""/>
    <tripinfo id="left_108" depart="22.00" departLane="4c_4" departPos="5.10" departSpeed="0.00" departDelay="0.00" arrival="108.00" arrivalLane="c3_4" arrivalPos="480.00" arrivalSpeed="12.64" duration="86.00" routeLength="995.03" waitingTime="1.00" waitingCount="1" stopTime="0.00" timeLoss="18.60" rerouteNo="0" devices="tripinfo_left_108" vType="passenger" speedFactor="1.06" vaporized=""/>
    <tripinfo id="right_116" depart="27.00" departLane="3c_0" departPos="5.10" departSpeed="0.00" departDelay="4.00" arrival="108.00" arrivalLane="c4_3" arrivalPos="480.00" arrivalSpeed="15.52" duration="81.00" routeLength="995.03" waitingTime="0.00" waitingCount="0" stopTime="0.00" timeLoss="20.01" rerouteNo="0" devices="tripinfo_right_116" vType="passenger" speedFactor="1.18" vaporized=""/>
    <tripinfo id="right_68" depart="15.00" departLane="3c_4" departPos="5.10" departSpeed="0.00" departDelay="1.00" arrival="110.00" arrivalLane="c4_4" arrivalPos="480.00" arrivalSpeed="12.55" duration="95.00" routeLength="995.03" waitingTime="0.00" waitingCount="0" stopTime="0.00" timeLoss="25.65" rerouteNo="0" devices="tripinfo_right_68" vType="passenger" speedFactor="1.04" vaporized=""/>
    <tripinfo id="left_85" depart="22.00" departLane="4c_1" departPos="5.10" departSpeed="0.00" departDelay="4.00" arrival="111.00" arrivalLane="c3_0" arrivalPos="480.00" arrivalSpeed="11.34" duration="89.00" routeLength="995.03" waitingTime="0.00" waitingCount="0" stopTime="0.00" timeLoss="14.92" rerouteNo="0" devices="tripinfo_left_85" vType="passenger" speedFactor="0.98" vaporized=""/>
    <tripinfo id="right_87" depart="20.00" departLane="3c_2" departPos="5.10" departSpeed="0.00" departDelay="1.00" arrival="111.00" arrivalLane="c4_3" arrivalPos="480.00" arrivalSpeed="14.15" duration="91.00" routeLength="995.03" waitingTime="0.00" waitingCount="0" stopTime="0.00" timeLoss="22.23" rerouteNo="0" devices="tripinfo_right_87" vType="passenger" speedFactor="1.04" vaporized=""/>
    <tripinfo id="left_101" depart="21.00" departLane="4c_2" departPos="5.10" departSpeed="0.00" departDelay="0.00" arrival="111.00" arrivalLane="c3_2" arrivalPos="480.00" arrivalSpeed="12.43" duration="90.00" routeLength="995.03" waitingTime="0.00" waitingCount="0" stopTime="0.00" timeLoss="14.70" rerouteNo="0" devices="tripinfo_left_101" vType="passenger" speedFactor="0.96" vaporized=""/>
    <tripinfo id="left_151" depart="30.00" departLane="4c_1" departPos="5.10" departSpeed="0.00" departDelay="0.00" arrival="111.00" arrivalLane="c3_1" arrivalPos="480.00" arrivalSpeed="13.59" duration="81.00" routeLength="995.03" waitingTime="0.00" waitingCount="0" stopTime="0.00" timeLoss="9.51" rerouteNo="0" devices="tripinfo_left_151" vType="passenger" speedFactor="1.00" vaporized=""/>
    <tripinfo id="right_66" depart="17.00" departLane="3c_2" departPos="5.10" departSpeed="0.00" departDelay="3.00" arrival="112.00" arrivalLane="c4_0" arrivalPos="480.00" arrivalSpeed="12.08" duration="95.00" routeLength="995.03" waitingTime="0.00" waitingCount="0" stopTime="0.00" timeLoss="15.66" rerouteNo="0" devices="tripinfo_right_66" vType="passenger" speedFactor="0.91" vaporized=""/>
    <tripinfo id="right_149" depart="31.00" departLane="3c_1" departPos="5.10" departSpeed="0.00" departDelay="1.00" arrival="112.00" arrivalLane="c4_2" arrivalPos="480.00" arrivalSpeed="12.21" duration="81.00" routeLength="995.03" waitingTime="0.00" waitingCount="0" stopTime="0.00" timeLoss="11.77" rerouteNo="0" devices="tripinfo_right_149" vType="passenger" speedFactor="1.04" vaporized=""/>
    <tripinfo id="left_100" depart="24.00" departLane="4c_1" departPos="5.10" departSpeed="0.00" departDelay="3.00" arrival="113.00" arrivalLane="c3_2" arrivalPos="480.00" arrivalSpeed="13.46" duration="89.00" routeLength="995.03" waitingTime="0.00" waitingCount="0" stopTime="0.00" timeLoss="20.95" rerouteNo="0" devices="tripinfo_left_100" vType="passenger" speedFactor="1.06" vaporized=""/>
    <tripinfo id="left_109" depart="24.00" departLane="4c_4" departPos="5.10" departSpeed="0.00" departDelay="2.00" arrival="113.00" arrivalLane="c3_4" arrivalPos="480.00" arrivalSpeed="11.35" duration="89.00" routeLength="995.03" waitingTime="0.00" waitingCount="0" stopTime="0.00" timeLoss="13.66" rerouteNo="0" devices="tripinfo_left_109" vType="passenger" speedFactor="0.96" vaporized=""/>
    <tripinfo id="right_148" depart="29.00" departLane="3c_1" departPos="5.10" departSpeed="0.00" departDelay="0.00" arrival="113.00" arrivalLane="c4_1" arrivalPos="480.00" arrivalSpeed="11.29" duration="84.00" routeLength="995.03" waitingTime="0.00" waitingCount="0" stopTime="0.00" timeLoss="9.46" rerouteNo="0" devices="tripinfo_right_148" vType="passenger" speedFactor="0.97" vaporized=""/>
    <tripinfo id="right_156" depart="38.00" departLane="3c_1" departPos="5.10" departSpeed="0.00" departDelay="5.00" arrival="113.00" arrivalLane="c4_3" arrivalPos="480.00" arrivalSpeed="15.32" duration="75.00" routeLength="995.03" waitingTime="0.00" waitingCount="0" stopTime="0.00" timeLoss="13.83" rerouteNo="0" devices="tripinfo_right_156" vType="passenger" speedFactor="1.18" vaporized=""/>
    <tripinfo id="left_49" depart="11.00" departLane="4c_2" departPos="5.10" departSpeed="0.00" departDelay="0.00" arrival="114.00" arrivalLane="c3_3" arrivalPos="480.00" arrivalSpeed="9.48" duration="103.00" routeLength="995.03" waitingTime="3.00" waitingCount="1" stopTime="0.00" timeLoss="18.13" rerouteNo="0" devices="tripinfo_left_49" vType="passenger" speedFactor="0.85" vaporized=""/>
    <tripinfo id="right_78" depart="17.00" departLane="3c_4" departPos="5.10" departSpeed="0.00" departDelay="1.00" arrival="114.00" arrivalLane="c4_4" arrivalPos="480.00" arrivalSpeed="12.36" duration="97.00" routeLength="995.03" waitingTime="0.00" waitingCount="0" stopTime="0.00" timeLoss="25.53" rerouteNo="0" devices="tripinfo_right_78" vType="passenger" speedFactor="1.01" vaporized=""/>
    <tripinfo id="left_136" depart="27.00" departLane="4c_0" departPos="5.10" departSpeed="0.00" departDelay="0.00" arrival="114.00" arrivalLane="c3_2" arrivalPos="480.00" arrivalSpeed="13.12" duration="87.00" routeLength="995.03" waitingTime="0.00" waitingCount="0" stopTime="0.00" timeLoss="22.92" rerouteNo="0" devices="tripinfo_left_136" vType="passenger" speedFactor="1.12" vaporized=""/>
    <tripinfo id="left_60" depart="18.00" departLane="4c_0" departPos="5.10" departSpeed="0.00" departDelay="5.00" arrival="115.00" arrivalLane="c3_3" arrivalPos="480.00" arrivalSpeed="14.43" duration="97.00" routeLength="995.03" waitingTime="1.00" waitingCount="1" stopTime="0.00" timeLoss="30.66" rerouteNo="0" devices="tripinfo_left_60" vType="passenger" speedFactor="1.08" vaporized=""/>
    <tripinfo id="left_132" depart="26.00" departLane="4c_3" departPos="5.10" departSpeed="0.00" departDelay="0.00" arrival="115.00" arrivalLane="c3_4" arrivalPos="480.00" arrivalSpeed="12.80" duration="89.00" routeLength="995.03" waitingTime="0.00" waitingCount="0" stopTime="0.00" timeLoss="14.17" rerouteNo="0" devices="tripinfo_left_132" vType="passenger" speedFactor="0.96" vaporized=""/>
    <tripinfo id="right_155" depart="36.00" departLane="3c_1" departPos="5.10" departSpeed="0.00" departDelay="3.00" arrival="115.00" arrivalLane="c4_2" arrivalPos="480.00" arrivalSpeed="13.93" duration="79.00" routeLength="995.03" waitingTime="0.00" waitingCount="0" stopTime="0.00" timeLoss="14.85" rerouteNo="0" devices="tripinfo_right_155" vType="passenger" speedFactor="1.12" vaporized=""/>
    <tripinfo id="left_161" depart="34.00" departLane="4c_1" departPos="5.10" departSpeed="0.00" departDelay="0.00" arrival="115.00" arrivalLane="c3_1" arrivalPos="480.00" arrivalSpeed="13.11" duration="81.00" routeLength="995.03" waitingTime="0.00" waitingCount="0" stopTime="0.00" timeLoss="14.21" rerouteNo="0" devices="tripinfo_left_161" vType="passenger" speedFactor="1.08" vaporized=""/>
    <tripinfo id="right_52" depart="14.00" departLane="3c_3" departPos="5.10" departSpeed="0.00" departDelay="2.00" arrival="116.00" arrivalLane="c4_3" arrivalPos="480.00" arrivalSpeed="13.95" duration="102.00" routeLength="995.03" waitingTime="0.00" waitingCount="0" stopTime="0.00" timeLoss="31.35" rerouteNo="0" devices="tripinfo_right_52" vType="passenger" speedFactor="1.02" vaporized=""/>
    <tripinfo id="right_24" depart="9.00" departLane="3c_1" departPos="5.10" departSpeed="0.00" departDelay="3.00" arrival="117.00" arrivalLane="c4_0" arrivalPos="480.00" arrivalSpeed="10.41" duration="108.00" routeLength="995.03" waitingTime="3.00" waitingCount="1" stopTime="0.00" timeLoss="20.91" rerouteNo="0" devices="tripinfo_right_24" vType="passenger" speedFactor="0.83" vaporized=""/>
    <tripinfo id="left_95" depart="20.00" departLane="4c_3" departPos="5.10" departSpeed="0.00" departDelay="0.00" arrival="117.00" arrivalLane="c3_3" arrivalPos="480.00" arrivalSpeed="12.52" duration="97.00" routeLength="995.03" waitingTime="0.00" waitingCount="0" stopTime="0.00" timeLoss="28.82" rerouteNo="0" devices="tripinfo_left_95" vType="passenger" speedFactor="1.06" vaporized=""/>
    <tripinfo id="left_117" depart="26.00" departLane="4c_4" departPos="5.10" departSpeed="0.00" departDelay="3.00" arrival="117.00" arrivalLane="c3_4" arrivalPos="480.00" arrivalSpeed="13.71" duration="91.00" routeLength="995.03" waitingTime="0.00" waitingCount="0" stopTime="0.00" timeLoss="19.08" rerouteNo="0" devices="tripinfo_left_117" vType="passenger" speedFactor="1.00" vaporized=""/>
    <tripinfo id="right_150" depart="33.00" departLane="3c_1" departPos="5.10" departSpeed="0.00" departDelay="3.00" arrival="117.00" arrivalLane="c4_1" arrivalPos="480.00" arrivalSpeed="12.55" duration="84.00" routeLength="995.03" waitingTime="0.00" waitingCount="0" stopTime="0.00" timeLoss="8.73" rerouteNo="0" devices="tripinfo_right_150" vType="passenger" speedFactor="0.96" vaporized=""/>
    <tripinfo id="left_162" depart="36.00" departLane="4c_1" departPos="5.10" departSpeed="0.00" departDelay="2.00" arrival="117.00" arrivalLane="c3_0" arrivalPos="480.00" arrivalSpeed="13.23" duration="81.00" routeLength="995.03" waitingTime="0.00" waitingCount="0" stopTime="0.00" timeLoss="8.74" rerouteNo="0" devices="tripinfo_left_162" vType="passenger" speedFactor="0.99" vaporized=""/>
    <tripinfo id="left_186" depart="39.00" departLane="4c_0" departPos="5.10" departSpeed="0.00" departDelay="0.00" arrival="117.00" arrivalLane="c3_1" arrivalPos="480.00" arrivalSpeed="12.94" duration="78.00" routeLength="995.03" waitingTime="0.00" waitingCount="0" stopTime="0.00" timeLoss="11.20" rerouteNo="0" devices="tripinfo_left_186" vType="passenger" speedFactor="1.08" vaporized=""/>
    <tripinfo id="right_58" depart="16.00" departLane="3c_3" departPos="5.10" departSpeed="0.00" departDelay="3.00" arrival="118.00" arrivalLane="c4_3" arrivalPos="480.00" arrivalSpeed="12.82" duration="102.00" routeLength="995.03" waitingTime="1.00" waitingCount="1" stopTime="0.00" timeLoss="31.63" rerouteNo="0" devices="tripinfo_right_58" vType="passenger" speedFactor="1.02" vaporized=""/>
    <tripinfo id="right_105" depart="25.00" departLane="3c_2" departPos="5.10" departSpeed="0.00" departDelay="3.00" arrival="119.00" arrivalLane="c4_2" arrivalPos="480.00" arrivalSpeed="12.73" duration="94.00" routeLength="995.03" waitingTime="0.00" waitingCount="0" stopTime="0.00" timeLoss="26.95" rerouteNo="0" devices="tripinfo_right_105" vType="passenger" speedFactor="1.07" vaporized=""/>
    <tripinfo id="left_110" depart="22.00" departLane="4c_3" departPos="5.10" departSpeed="0.00" departDelay="0.00" arrival="119.00" arrivalLane="c3_3" arrivalPos="480.00" arrivalSpeed="11.68" duration="97.00" routeLength="995.03" waitingTime="0.00" waitingCount="0" stopTime="0.00" timeLoss="19.28" rerouteNo="0" devices="tripinfo_left_110" vType="passenger" speedFactor="0.93" vaporized=""/>