<?xml version="1.0" encoding="UTF-8"?>

<!-- generated on 2024-06-11 12:34:25 by Eclipse SUMO sumo Version 1.20.0
<configuration xmlns:xsi="http://www.w3.org/2001/XMLSchema-instance" xsi:noNamespaceSchemaLocation="http://sumo.dlr.de/xsd/sumoConfiguration.xsd">

    <input>
        <net-file value="config/cross.net.xml"/>
        <route-files value="config/cross.rou.xml"/>
        <additional-files value="config/cross.det.xml"/>
    </input>

    <output>
        <queue-output value="queueinfo.xml"/>
        <tripinfo-output value="tripinfo.xml"/>
    </output>

    <time>
        <begin value="0"/>
    </time>

    <report>
        <verbose value="true"/>
        <no-step-log value="true"/>
    </report>

    <traci_server>
        <remote-port value="62372"/>
    </traci_server>

</configuration>
-->

<tripinfos xmlns:xsi="http://www.w3.org/2001/XMLSchema-instance" xsi:noNamespaceSchemaLocation="http://sumo.dlr.de/xsd/tripinfo_file.xsd">
    <tripinfo id="left_0" depart="0.00" departLane="4c_4" departPos="5.10" departSpeed="0.00" departDelay="0.00" arrival="76.00" arrivalLane="c3_0" arrivalPos="480.00" arrivalSpeed="14.19" duration="76.00" routeLength="995.03" waitingTime="0.00" waitingCount="0" stopTime="0.00" timeLoss="7.63" rerouteNo="0" devices="tripinfo_left_0" vType="passenger" speedFactor="1.06" vaporized=""/>
    <tripinfo id="right_10" depart="2.00" departLane="3c_2" departPos="5.10" departSpeed="0.00" departDelay="0.00" arrival="76.00" arrivalLane="c4_0" arrivalPos="480.00" arrivalSpeed="13.44" duration="74.00" routeLength="995.03" waitingTime="0.00" waitingCount="0" stopTime="0.00" timeLoss="7.75" rerouteNo="0" devices="tripinfo_right_10" vType="passenger" speedFactor="1.09" vaporized=""/>
    <tripinfo id="right_4" depart="2.00" departLane="3c_1" departPos="5.10" departSpeed="0.00" departDelay="1.00" arrival="80.00" arrivalLane="c4_0" arrivalPos="480.00" arrivalSpeed="12.37" duration="78.00" routeLength="995.03" waitingTime="0.00" waitingCount="0" stopTime="0.00" timeLoss="8.25" rerouteNo="0" devices="tripinfo_right_4" vType="passenger" speedFactor="1.03" vaporized=""/>
    <tripinfo id="right_11" depart="4.00" departLane="3c_2" departPos="5.10" departSpeed="0.00" departDelay="2.00" arrival="81.00" arrivalLane="c4_1" arrivalPos="480.00" arrivalSpeed="13.63" duration="77.00" routeLength="995.03" waitingTime="0.00" waitingCount="0" stopTime="0.00" timeLoss="6.72" rerouteNo="0" devices="tripinfo_right_11" vType="passenger" speedFactor="1.03" vaporized=""/>
    <tripinfo id="right_14" depart="2.00" departLane="3c_4" departPos="5.10" departSpeed="0.00" departDelay="0.00" arrival="83.00" arrivalLane="c4_2" arrivalPos="480.00" arrivalSpeed="11.33" duration="81.00" routeLength="995.03" waitingTime="0.00" waitingCount="0" stopTime="0.00" timeLoss="8.25" rerouteNo="0" devices="tripinfo_right_14" vType="passenger" speedFactor="0.99" vaporized=""/>
    <tripinfo id="left_19" depart="5.00" departLane="4c_4" departPos="5.10" departSpeed="0.00" departDelay="2.00" arrival="84.00" arrivalLane="c3_3" arrivalPos="480.00" arrivalSpeed="14.12" duration="79.00" routeLength="995.03" waitingTime="0.00" waitingCount="0" stopTime="0.00" timeLoss="16.91" rerouteNo="0" devices="tripinfo_left_19" vType="passenger" speedFactor="1.16" vaporized=""/>
    <tripinfo id="right_21" depart="4.00" departLane="3c_4" departPos="5.10" departSpeed="0.00" departDelay="0.00" arrival="84.00" arrivalLane="c4_3" arrivalPos="480.00" arrivalSpeed="13.11" duration="80.00" routeLength="995.03" waitingTime="0.00" waitingCount="0" stopTime="0.00" timeLoss="8.92" rerouteNo="0" devices="tripinfo_right_21" vType="passenger" speedFactor="1.01" vaporized=""/>
    <tripinfo id="left_1" depart="0.00" departLane="4c_3" departPos="5.10" departSpeed="0.00" departDelay="0.00" arrival="85.00" arrivalLane="c3_0" arrivalPos="480.00" arrivalSpeed="10.76" duration="85.00" routeLength="995.03" waitingTime="0.00" waitingCount="0" stopTime="0.00" timeLoss="8.53" rerouteNo="0" devices="tripinfo_left_1" vType="passenger" speedFactor="0.94" vaporized=""/>
    <tripinfo id="right_12" depart="4.00" departLane="3c_1" departPos="5.10" departSpeed="0.00" departDelay="2.00" arrival="85.00" arrivalLane="c4_0" arrivalPos="480.00" arrivalSpeed="14.00" duration="81.00" routeLength="995.03" waitingTime="1.00" waitingCount="1" stopTime="0.00" timeLoss="12.20" rerouteNo="0" devices="tripinfo_right_12" vType="passenger" speedFactor="1.05" vaporized=""/>
    <tripinfo id="left_35" depart="6.00" departLane="4c_2" departPos="5.10" departSpeed="0.00" departDelay="0.00" arrival="85.00" arrivalLane="c3_1" arrivalPos="480.00" arrivalSpeed="14.10" duration="79.00" routeLength="995.03" waitingTime="0.00" waitingCount="0" stopTime="0.00" timeLoss="7.87" rerouteNo="0" devices="tripinfo_left_35" vType="passenger" speedFactor="1.02" vaporized=""/>
    <tripinfo id="left_42" depart="7.00" departLane="4c_0" departPos="5.10" departSpeed="0.00" departDelay="0.00" arrival="87.00" arrivalLane="c3_2" arrivalPos="480.00" arrivalSpeed="13.49" duration="80.00" routeLength="995.03" waitingTime="0.00" waitingCount="0" stopTime="0.00" timeLoss="13.99" rerouteNo="0" devices="tripinfo_left_42" vType="passenger" speedFactor="1.09" vaporized=""/>
    <tripinfo id="left_17" depart="2.00" departLane="4c_2" departPos="5.10" departSpeed="0.00" departDelay="0.00" arrival="88.00" arrivalLane="c3_1" arrivalPos="480.00" arrivalSpeed="11.31" duration="86.00" routeLength="995.03" waitingTime="0.00" waitingCount="0" stopTime="0.00" timeLoss="9.36" rerouteNo="0" devices="tripinfo_left_17" vType="passenger" speedFactor="0.94" vaporized=""/>
    <tripinfo id="right_22" depart="6.00" departLane="3c_4" departPos="5.10" departSpeed="0.00" departDelay="2.00" arrival="88.00" arrivalLane="c4_1" arrivalPos="480.00" arrivalSpeed="11.62" duration="82.00" routeLength="995.03" waitingTime="0.00" waitingCount="0" stopTime="0.00" timeLoss="8.48" rerouteNo="0" devices="tripinfo_right_22" vType="passenger" speedFactor="0.97" vaporized=""/>
    <tripinfo id="left_40" depart="7.00" departLane="4c_3" departPos="5.10" departSpeed="0.00" departDelay="0.00" arrival="89.00" arrivalLane="c3_4" arrivalPos="480.00" arrivalSpeed="13.85" duration="82.00" routeLength="995.03" waitingTime="0.00" waitingCount="0" stopTime="0.00" timeLoss="11.86" rerouteNo="0" devices="tripinfo_left_40" vType="passenger" speedFactor="1.03" vaporized=""/>
    <tripinfo id="left_15" depart="2.00" departLane="4c_4" departPos="5.10" departSpeed="0.00" departDelay="0.00" arrival="90.00" arrivalLane="c3_3" arrivalPos="480.00" arrivalSpeed="12.41" duration="88.00" routeLength="995.03" waitingTime="0.00" waitingCount="0" stopTime="0.00" timeLoss="10.46" rerouteNo="0" devices="tripinfo_left_15" vType="passenger" speedFactor="0.93" vaporized=""/>
    <tripinfo id="left_30" depart="9.00" departLane="4c_4" departPos="5.10" departSpeed="0.00" departDelay="4.00" arrival="90.00" arrivalLane="c3_4" arrivalPos="480.00" arrivalSpeed="14.19" duration="81.00" routeLength="995.03" waitingTime="0.00" waitingCount="0" stopTime="0.00" timeLoss="20.19" rerouteNo="0" devices="tripinfo_left_30" vType="passenger" speedFactor="1.18" vaporized=""/>
    <tripinfo id="left_31" depart="5.00" departLane="4c_0" departPos="5.10" departSpeed="0.00" departDelay="0.00" arrival="90.00" arrivalLane="c3_1" arrivalPos="480.00" arrivalSpeed="13.98" duration="85.00" routeLength="995.03" waitingTime="0.00" waitingCount="0" stopTime="0.00" timeLoss="22.09" rerouteNo="0" devices="tripinfo_left_31" vType="passenger" speedFactor="1.15" vaporized=""/>
    <tripinfo id="left_43" depart="9.00" departLane="4c_0" departPos="5.10" departSpeed="0.00" departDelay="2.00" arrival="90.00" arrivalLane="c3_2" arrivalPos="480.00" arrivalSpeed="12.20" duration="81.00" routeLength="995.03" waitingTime="0.00" waitingCount="0" stopTime="0.00" timeLoss="11.63" rerouteNo="0" devices="tripinfo_left_43" vType="passenger" speedFactor="1.04" vaporized=""/>
    <tripinfo id="right_99" depart="18.00" departLane="3c_2" departPos="5.10" departSpeed="0.00" departDelay="0.00" arrival="91.00" arrivalLane="c4_2" arrivalPos="480.00" arrivalSpeed="14.77" duration="73.00" routeLength="995.03" waitingTime="0.00" waitingCount="0" stopTime="0.00" timeLoss="6.96" rerouteNo="0" devices="tripinfo_right_99" vType="passenger" speedFactor="1.10" vaporized=""/>
    <tripinfo id="left_18" depart="4.00" departLane="4c_1" departPos="5.10" departSpeed="0.00" departDelay="1.00" arrival="92.00" arrivalLane="c3_0" arrivalPos="480.00" arrivalSpeed="11.99" duration="88.00" routeLength="995.03" waitingTime="0.00" waitingCount="0" stopTime="0.00" timeLoss="10.72" rerouteNo="0" devices="tripinfo_left_18" vType="passenger" speedFactor="0.94" vaporized=""/>
    <tripinfo id="left_41" depart="8.00" departLane="4c_2" departPos="5.10" departSpeed="0.00" departDelay="1.00" arrival="92.00" arrivalLane="c3_3" arrivalPos="480.00" arrivalSpeed="12.14" duration="84.00" routeLength="995.03" waitingTime="0.00" waitingCount="0" stopTime="0.00" timeLoss="8.76" rerouteNo="0" devices="tripinfo_left_41" vType="passenger" speedFactor="0.96" vaporized=""/>
    <tripinfo id="right_34" depart="8.00" departLane="3c_3" departPos="5.10" departSpeed="0.00" departDelay="2.00" arrival="93.00" arrivalLane="c4_0" arrivalPos="480.00" arrivalSpeed="13.21" duration="85.00" routeLength="995.03" waitingTime="0.00" waitingCount="0" stopTime="0.00" timeLoss="12.32" rerouteNo="0" devices="tripinfo_right_34" vType="passenger" speedFactor="0.99" vaporized=""/>
    <tripinfo id="left_46" depart="12.00" departLane="4c_4" departPos="5.10" departSpeed="0.00" departDelay="4.00" arrival="93.00" arrivalLane="c3_4" arrivalPos="480.00" arrivalSpeed="12.07" duration="81.00" routeLength="995.03" waitingTime="0.00" waitingCount="0" stopTime="0.00" timeLoss="9.09" rerouteNo="0" devices="tripinfo_left_46" vType="passenger" speedFactor="1.00" vaporized=""/>
    <tripinfo id="right_53" depart="19.00" departLane="3c_1" departPos="5.10" departSpeed="0.00" departDelay="10.00" arrival="93.00" arrivalLane="c4_2" arrivalPos="480.00" arrivalSpeed="14.06" duration="74.00" routeLength="995.03" waitingTime="0.00" waitingCount="0" stopTime="0.00" timeLoss="8.11" rerouteNo="0" devices="tripinfo_right_53" vType="passenger" speedFactor="1.10" vaporized=""/>
    <tripinfo id="left_69" depart="12.00" departLane="4c_1" departPos="5.10" departSpeed="0.00" departDelay="0.00" arrival="93.00" arrivalLane="c3_2" arrivalPos="480.00" arrivalSpeed="13.96" duration="81.00" routeLength="995.03" waitingTime="0.00" waitingCount="0" stopTime="0.00" timeLoss="10.60" rerouteNo="0" devices="tripinfo_left_69" vType="passenger" speedFactor="1.02" vaporized=""/>
    <tripinfo id="left_76" depart="14.00" departLane="4c_1" departPos="5.10" departSpeed="0.00" departDelay="1.00" arrival="94.00" arrivalLane="c3_1" arrivalPos="480.00" arrivalSpeed="12.47" duration="80.00" routeLength="995.03" waitingTime="0.00" waitingCount="0" stopTime="0.00" timeLoss="10.49" rerouteNo="0" devices="tripinfo_left_76" vType="passenger" speedFactor="1.03" vaporized=""/>
    <tripinfo id="left_16" depart="2.00" departLane="4c_1" departPos="5.10" departSpeed="0.00" departDelay="0.00" arrival="96.00" arrivalLane="c3_0" arrivalPos="480.00" arrivalSpeed="10.60" duration="94.00" routeLength="995.03" waitingTime="0.00" waitingCount="0" stopTime="0.00" timeLoss="12.11" rerouteNo="0" devices="tripinfo_left_16" vType="passenger" speedFactor="0.88" vaporized=""/>
    <tripinfo id="right_52" depart="10.00" departLane="3c_3" departPos="5.10" departSpeed="0.00" departDelay="1.00" arrival="96.00" arrivalLane="c4_2" arrivalPos="480.00" arrivalSpeed="11.87" duration="86.00" routeLength="995.03" waitingTime="0.00" waitingCount="0" stopTime="0.00" timeLoss="14.90" rerouteNo="0" devices="tripinfo_right_52" vType="passenger" speedFactor="1.02" vaporized=""/>
    <tripinfo id="left_47" depart="9.00" departLane="4c_3" departPos="5.10" departSpeed="0.00" departDelay="1.00" arrival="99.00" arrivalLane="c3_0" arrivalPos="480.00" arrivalSpeed="12.11" duration="90.00" routeLength="995.03" waitingTime="0.00" waitingCount="0" stopTime="0.00" timeLoss="9.77" rerouteNo="0" devices="tripinfo_left_47" vType="passenger" speedFactor="0.90" vaporized=""/>
    <tripinfo id="right_51" depart="16.00" departLane="3c_1" departPos="5.10" departSpeed="0.00" departDelay="7.00" arrival="99.00" arrivalLane="c4_4" arrivalPos="480.00" arrivalSpeed="14.72" duration="83.00" routeLength="995.03" waitingTime="0.00" waitingCount="0" stopTime="0.00" timeLoss="20.89" rerouteNo="0" devices="tripinfo_right_51" vType="passenger" speedFactor="1.17" vaporized=""/>
    <tripinfo id="left_85" depart="16.00" departLane="4c_1" departPos="5.10" departSpeed="0.00" departDelay="2.00" arrival="99.00" arrivalLane="c3_1" arrivalPos="480.00" arrivalSpeed="12.91" duration="83.00" routeLength="995.03" waitingTime="0.00" waitingCount="0" stopTime="0.00" timeLoss="8.84" rerouteNo="0" devices="tripinfo_left_85" vType="passenger" speedFactor="0.98" vaporized=""/>
    <tripinfo id="right_114" depart="21.00" departLane="3c_2" departPos="5.10" departSpeed="0.00" departDelay="0.00" arrival="99.00" arrivalLane="c4_2" arrivalPos="480.00" arrivalSpeed="13.83" duration="78.00" routeLength="995.03" waitingTime="0.00" waitingCount="0" stopTime="0.00" timeLoss="12.28" rerouteNo="0" devices="tripinfo_right_114" vType="passenger" speedFactor="1.10" vaporized=""/>
    <tripinfo id="right_66" depart="12.00" departLane="3c_2" departPos="5.10" departSpeed="0.00" departDelay="0.00" arrival="100.00" arrivalLane="c4_1" arrivalPos="480.00" arrivalSpeed="10.28" duration="88.00" routeLength="995.03" waitingTime="0.00" waitingCount="0" stopTime="0.00" timeLoss="8.85" rerouteNo="0" devices="tripinfo_right_66" vType="passenger" speedFactor="0.91" vaporized=""/>
    <tripinfo id="left_96" depart="18.00" departLane="4c_1" departPos="5.10" departSpeed="0.00" departDelay="1.00" arrival="100.00" arrivalLane="c3_1" arrivalPos="480.00" arrivalSpeed="13.04" duration="82.00" routeLength="995.03" waitingTime="0.00" waitingCount="0" stopTime="0.00" timeLoss="10.94" rerouteNo="0" devices="tripinfo_left_96" vType="passenger" speedFactor="1.01" vaporized=""/>
    <tripinfo id="left_121" depart="23.00" departLane="4c_0" departPos="5.10" departSpeed="0.00" departDelay="0.00" arrival="100.00" arrivalLane="c3_2" arrivalPos="480.00" arrivalSpeed="13.40" duration="77.00" routeLength="995.03" waitingTime="0.00" waitingCount="0" stopTime="0.00" timeLoss="11.82" rerouteNo="0" devices="tripinfo_left_121" vType="passenger" speedFactor="1.10" vaporized=""/>
    <tripinfo id="right_5" depart="2.00" departLane="3c_3" departPos="5.10" departSpeed="0.00" departDelay="1.00" arrival="101.00" arrivalLane="c4_0" arrivalPos="480.00" arrivalSpeed="9.92" duration="99.00" routeLength="995.03" waitingTime="0.00" waitingCount="0" stopTime="0.00" timeLoss="12.59" rerouteNo="0" devices="tripinfo_right_5" vType="passenger" speedFactor="0.83" vaporized=""/>
    <tripinfo id="left_56" depart="10.00" departLane="4c_1" departPos="5.10" departSpeed="0.00" departDelay="1.00" arrival="101.00" arrivalLane="c3_0" arrivalPos="480.00" arrivalSpeed="10.05" duration="91.00" routeLength="995.03" waitingTime="0.00" waitingCount="0" stopTime="0.00" timeLoss="10.82" rerouteNo="0" devices="tripinfo_left_56" vType="passenger" speedFactor="0.90" vaporized=""/>
    <tripinfo id="left_55" depart="11.00" departLane="4c_3" departPos="5.10" departSpeed="0.00" departDelay="2.00" arrival="102.00" arrivalLane="c3_4" arrivalPos="480.00" arrivalSpeed="11.91" duration="91.00" routeLength="995.03" waitingTime="1.00" waitingCount="1" stopTime="0.00" timeLoss="18.28" rerouteNo="0" devices="tripinfo_left_55" vType="passenger" speedFactor="1.00" vaporized=""/>
    <tripinfo id="left_86" depart="18.00" departLane="4c_0" departPos="5.10" departSpeed="0.00" departDelay="4.00" arrival="102.00" arrivalLane="c3_1" arrivalPos="480.00" arrivalSpeed="12.18" duration="84.00" routeLength="995.03" waitingTime="0.00" waitingCount="0" stopTime="0.00" timeLoss="12.20" rerouteNo="0" devices="tripinfo_left_86" vType="passenger" speedFactor="1.00" vaporized=""/>
    <tripinfo id="left_136" depart="27.00" departLane="4c_0" departPos="5.10" departSpeed="0.00" departDelay="2.00" arrival="102.00" arrivalLane="c3_2" arrivalPos="480.00" arrivalSpeed="13.87" duration="75.00" routeLength="995.03" waitingTime="0.00" waitingCount="0" stopTime="0.00" timeLoss="11.00" rerouteNo="0" devices="tripinfo_left_136" vType="passenger" speedFactor="1.12" vaporized=""/>
    <tripinfo id="left_58" depart="14.00" departLane="4c_3" departPos="5.10" departSpeed="0.00" departDelay="5.00" arrival="103.00" arrivalLane="c3_4" arrivalPos="480.00" arrivalSpeed="13.72" duration="89.00" routeLength="995.03" waitingTime="0.00" waitingCount="0" stopTime="0.00" timeLoss="18.94" rerouteNo="0" devices="tripinfo_left_58" vType="passenger" speedFactor="1.02" vaporized=""/>
    <tripinfo id="left_101" depart="18.00" departLane="4c_2" departPos="5.10" departSpeed="0.00" departDelay="0.00" arrival="103.00" arrivalLane="c3_2" arrivalPos="480.00" arrivalSpeed="11.56" duration="85.00" routeLength="995.03" waitingTime="0.00" waitingCount="0" stopTime="0.00" timeLoss="9.29" rerouteNo="0" devices="tripinfo_left_101" vType="passenger" speedFactor="0.96" vaporized=""/>
    <tripinfo id="right_84" depart="25.00" departLane="3c_1" departPos="5.10" departSpeed="0.00" departDelay="11.00" arrival="104.00" arrivalLane="c4_3" arrivalPos="480.00" arrivalSpeed="14.01" duration="79.00" routeLength="995.03" waitingTime="0.00" waitingCount="0" stopTime="0.00" timeLoss="15.88" rerouteNo="0" devices="tripinfo_right_84" vType="passenger" speedFactor="1.15" vaporized=""/>
    <tripinfo id="left_105" depart="22.00" departLane="4c_2" departPos="5.10" departSpeed="0.00" departDelay="3.00" arrival="104.00" arrivalLane="c3_3" arrivalPos="480.00" arrivalSpeed="13.78" duration="82.00" routeLength="995.03" waitingTime="0.00" waitingCount="0" stopTime="0.00" timeLoss="14.83" rerouteNo="0" devices="tripinfo_left_105" vType="passenger" speedFactor="1.07" vaporized=""/>
    <tripinfo id="left_78" depart="17.00" departLane="4c_4" departPos="5.10" departSpeed="0.00" departDelay="4.00" arrival="105.00" arrivalLane="c3_4" arrivalPos="480.00" arrivalSpeed="12.77" duration="88.00" routeLength="995.03" waitingTime="0.00" waitingCount="0" stopTime="0.00" timeLoss="16.54" rerouteNo="0" devices="tripinfo_left_78" vType="passenger" speedFactor="1.01" vaporized=""/>
    <tripinfo id="right_89" depart="19.00" departLane="3c_4" departPos="5.10" departSpeed="0.00" departDelay="4.00" arrival="106.00" arrivalLane="c4_1" arrivalPos="480.00" arrivalSpeed="14.05" duration="87.00" routeLength="995.03" waitingTime="0.00" waitingCount="0" stopTime="0.00" timeLoss="16.02" rerouteNo="0" devices="tripinfo_right_89" vType="passenger" speedFactor="1.02" vaporized=""/>
    <tripinfo id="left_106" depart="25.00" departLane="4c_2" departPos="5.10" departSpeed="0.00" departDelay="6.00" arrival="106.00" arrivalLane="c3_2" arrivalPos="480.00" arrivalSpeed="12.10" duration="81.00" routeLength="995.03" waitingTime="0.00" waitingCount="0" stopTime="0.00" timeLoss="9.93" rerouteNo="0" devices="tripinfo_left_106" vType="passenger" speedFactor="1.01" vaporized=""/>
    <tripinfo id="left_122" depart="25.00" departLane="4c_0" departPos="5.10" departSpeed="0.00" departDelay="2.00" arrival="106.00" arrivalLane="c3_1" arrivalPos="480.00" arrivalSpeed="12.84" duration="81.00" routeLength="995.03" waitingTime="0.00" waitingCount="0" stopTime="0.00" timeLoss="11.24" rerouteNo="0" devices="tripinfo_left_122" vType="passenger" speedFactor="1.03" vaporized=""/>
    <tripinfo id="left_161" depart="30.00" departLane="4c_1" departPos="5.10" departSpeed="0.00" departDelay="1.00" arrival="106.00" arrivalLane="c3_0" arrivalPos="480.00" arrivalSpeed="13.26" duration="76.00" routeLength="995.03" waitingTime="0.00" waitingCount="0" stopTime="0.00" timeLoss="9.48" rerouteNo="0" devices="tripinfo_left_161" vType="passenger" speedFactor="1.08" vaporized=""/>
    <tripinfo id="left_68" depart="14.00" departLane="4c_4" departPos="5.10" departSpeed="0.00" departDelay="2.00" arrival="107.00" arrivalLane="c3_4" arrivalPos="480.00" arrivalSpeed="13.73" duration="93.00" routeLength="995.03" waitingTime="2.00" waitingCount="1" stopTime="0.00" timeLoss="23.73" rerouteNo="0" devices="tripinfo_left_68" vType="passenger" speedFactor="1.04" vaporized=""/>
    <tripinfo id="left_140" depart="27.00" departLane="4c_2" departPos="5.10" departSpeed="0.00" departDelay="1.00" arrival="107.00" arrivalLane="c3_3" arrivalPos="480.00" arrivalSpeed="13.40" duration="80.00" routeLength="995.03" waitingTime="0.00" waitingCount="0" stopTime="0.00" timeLoss="15.64" rerouteNo="0" devices="tripinfo_left_140" vType="passenger" speedFactor="1.11" vaporized=""/>
    <tripinfo id="right_39" depart="12.00" departLane="3c_1" departPos="5.10" departSpeed="0.00" departDelay="5.00" arrival="108.00" arrivalLane="c4_0" arrivalPos="480.00" arrivalSpeed="11.88" duration="96.00" routeLength="995.03" waitingTime="0.00" waitingCount="0" stopTime="0.00" timeLoss="15.74" rerouteNo="0" devices="tripinfo_right_39" vType="passenger" speedFactor="0.90" vaporized=""/>
    <tripinfo id="left_75" depart="18.00" departLane="4c_3" departPos="5.10" departSpeed="0.00" departDelay="5.00" arrival="109.00" arrivalLane="c3_2" arrivalPos="480.00" arrivalSpeed="12.73" duration="91.00" routeLength="995.03" waitingTime="0.00" waitingCount="0" stopTime="0.00" timeLoss="18.22" rerouteNo="0" devices="tripinfo_left_75" vType="passenger" speedFactor="0.98" vaporized=""/>
    <tripinfo id="right_129" depart="24.00" departLane="3c_2" departPos="5.10" departSpeed="0.00" departDelay="0.00" arrival="110.00" arrivalLane="c4_1" arrivalPos="480.00" arrivalSpeed="11.84" duration="86.00" routeLength="995.03" waitingTime="0.00" waitingCount="0" stopTime="0.00" timeLoss="14.83" rerouteNo="0" devices="tripinfo_right_129" vType="passenger" speedFactor="1.01" vaporized=""/>
    <tripinfo id="left_95" depart="23.00" departLane="4c_3" departPos="5.10" departSpeed="0.00" departDelay="6.00" arrival="111.00" arrivalLane="c3_3" arrivalPos="480.00" arrivalSpeed="13.00" duration="88.00" routeLength="995.03" waitingTime="0.00" waitingCount="0" stopTime="0.00" timeLoss="19.43" rerouteNo="0" devices="tripinfo_left_95" vType="passenger" speedFactor="1.06" vaporized=""/>
    <tripinfo id="right_100" depart="28.00" departLane="3c_1" departPos="5.10" departSpeed="0.00" departDelay="10.00" arrival="111.00" arrivalLane="c4_2" arrivalPos="480.00" arrivalSpeed="13.83" duration="83.00" routeLength="995.03" waitingTime="0.00" waitingCount="0" stopTime="0.00" timeLoss="14.96" rerouteNo="0" devices="tripinfo_right_100" vType="passenger" speedFactor="1.06" vaporized=""/>
    <tripinfo id="left_107" depart="26.00" departLane="4c_3" departPos="5.10" departSpeed="0.00" departDelay="7.00" arrival="111.00" arrivalLane="c3_2" arrivalPos="480.00" arrivalSpeed="14.12" duration="85.00" routeLength="995.03" waitingTime="0.00" waitingCount="0" stopTime="0.00" timeLoss="15.41" rerouteNo="0" devices="tripinfo_left_107" vType="passenger" speedFactor="1.03" vaporized=""/>
    <tripinfo id="left_152" depart="33.00" departLane="4c_2" departPos="5.10" departSpeed="0.00" departDelay="5.00" arrival="112.00" arrivalLane="c3_3" arrivalPos="480.00" arrivalSpeed="13.08" duration="79.00" routeLength="995.03" waitingTime="0.00" waitingCount="0" stopTime="0.00" timeLoss="12.12" rerouteNo="0" devices="tripinfo_left_152" vType="passenger" speedFactor="1.07" vaporized=""/>
    <tripinfo id="left_166" depart="33.00" departLane="4c_1" departPos="5.10" departSpeed="0.00" departDelay="3.00" arrival="113.00" arrivalLane="c3_0" arrivalPos="480.00" arrivalSpeed="13.02" duration="80.00" routeLength="995.03" waitingTime="0.00" waitingCount="0" stopTime="0.00" timeLoss="7.88" rerouteNo="0" devices="tripinfo_left_166" vType="passenger" speedFactor="1.00" vaporized=""/>
    <tripinfo id="right_198" depart="36.00" departLane="3c_0" departPos="5.10" departSpeed="0.00" departDelay="0.00" arrival="113.00" arrivalLane="c4_1" arrivalPos="480.00" arrivalSpeed="13.12" duration="77.00" routeLength="995.03" waitingTime="0.00" waitingCount="0" stopTime="0.00" timeLoss="9.12" rerouteNo="0" devices="tripinfo_right_198" vType="passenger" speedFactor="1.06" vaporized=""/>
    <tripinfo id="left_67" depart="16.00" departLane="4c_3" departPos="5.10" departSpeed="0.00" departDelay="4.00" arrival="114.00" arrivalLane="c3_4" arrivalPos="480.00" arrivalSpeed="10.73" duration="98.00" routeLength="995.03" waitingTime="0.00" waitingCount="0" stopTime="0.00" timeLoss="19.39" rerouteNo="0" devices="tripinfo_left_67" vType="passenger" speedFactor="0.91" vaporized=""/>
    <tripinfo id="left_90" depart="21.00" departLane="4c_3" departPos="5.10" departSpeed="0.00" departDelay="6.00" arrival="114.00" arrivalLane="c3_3" arrivalPos="480.00" arrivalSpeed="12.80" duration="93.00" routeLength="995.03" waitingTime="0.00" waitingCount="0" stopTime="0.00" timeLoss="22.51" rerouteNo="0" devices="tripinfo_left_90" vType="passenger" speedFactor="1.02" vaporized=""/>
    <tripinfo id="right_159" depart="29.00" departLane="3c_0" departPos="5.10" departSpeed="0.00" departDelay="0.00" arrival="114.00" arrivalLane="c4_4" arrivalPos="480.00" arrivalSpeed="14.12" duration="85.00" routeLength="995.03" waitingTime="0.00" waitingCount="0" stopTime="0.00" timeLoss="22.01" rerouteNo="0" devices="tripinfo_right_159" vType="passenger" speedFactor="1.14" vaporized=""/>
    <tripinfo id="left_77" depart="16.00" departLane="4c_0" departPos="5.10" departSpeed="0.00" departDelay="3.00" arrival="115.00" arrivalLane="c3_0" arrivalPos="480.00" arrivalSpeed="11.50" duration="99.00" routeLength="995.03" waitingTime="0.00" waitingCount="0" stopTime="0.00" timeLoss="26.05" rerouteNo="0" devices="tripinfo_left_77" vType="passenger" speedFactor="0.98" vaporized=""/>
    <tripinfo id="left_131" depart="27.00" departLane="4c_4" departPos="5.10" departSpeed="0.00" departDelay="3.00" arrival="116.00" arrivalLane="c3_4" arrivalPos="480.00" arrivalSpeed="14.57" duration="89.00" routeLength="995.03" waitingTime="1.00" waitingCount="1" stopTime="0.00" timeLoss="21.27" rerouteNo="0" devices="tripinfo_left_131" vType="passenger" speedFactor="1.07" vaporized=""/>
    <tripinfo id="right_65" depart="15.00" departLane="3c_3" departPos="5.10" departSpeed="0.00" departDelay="3.00" arrival="117.00" arrivalLane="c4_1" arrivalPos="480.00" arrivalSpeed="11.78" duration="102.00" routeLength="995.03" waitingTime="0.00" waitingCount="0" stopTime="0.00" timeLoss="19.98" rerouteNo="0" devices="tripinfo_right_65" vType="passenger" speedFactor="0.88" vaporized=""/>
    <tripinfo id="right_94" depart="24.00" departLane="3c_4" departPos="5.10" departSpeed="0.00" departDelay="7.00" arrival="117.00" arrivalLane="c4_2" arrivalPos="480.00" arrivalSpeed="14.00" duration="93.00" routeLength="995.03" waitingTime="0.00" waitingCount="0" stopTime="0.00" timeLoss="26.88" rerouteNo="0" devices="tripinfo_right_94" vType="passenger" speedFactor="1.09" vaporized=""/>
    <tripinfo id="left_120" depart="25.00" departLane="4c_4" departPos="5.10" departSpeed="0.00" departDelay="2.00" arrival="117.00" arrivalLane="c3_2" arrivalPos="480.00" arrivalSpeed="12.62" duration="92.00" routeLength="995.03" waitingTime="0.00" waitingCount="0" stopTime="0.00" timeLoss="15.46" rerouteNo="0" devices="tripinfo_left_120" vType="passenger" speedFactor="0.94" vaporized=""/>
    <tripinfo id="right_88" depart="17.00" departLane="3c_3" departPos="5.10" departSpeed="0.00" departDelay="2.00" arrival="118.00" arrivalLane="c4_3" arrivalPos="480.00" arrivalSpeed="13.75" duration="101.00" routeLength="995.03" waitingTime="0.00" waitingCount="0" stopTime="0.00" timeLoss="29.18" rerouteNo="0" devices="tripinfo_right_88" vType="passenger" speedFactor="1.01" vaporized=""/>
    <tripinfo id="right_54" depart="13.00" departLane="3c_4" departPos="5.10" departSpeed="0.00" departDelay="4.00" arrival="120.00" arrivalLane="c4_3" arrivalPos="480.00" arrivalSpeed="11.84" duration="107.00" routeLength="995.03" waitingTime="1.00" waitingCount="1" stopTime="0.00" timeLoss="34.83" rerouteNo="0" devices="tripinfo_right_54" vType="passenger" speedFactor="1.00" vaporized=""/>
    <tripinfo id="left_93" depart="20.00" departLane="4c_0" departPos="5.10" departSpeed="0.00" departDelay="4.00" arrival="120.00" arrivalLane="c3_1" arrivalPos="480.00" arrivalSpeed="11.39" duration="100.00" routeLength="995.03" waitingTime="0.00" waitingCount="0" stopTime="0.00" timeLoss="21.80" rerouteNo="0" devices="tripinfo_left_93" vType="passenger" speedFactor="0.92" vaporized=""/>
    <tripinfo id="left_110" depart="29.00" departLane="4c_3" departPos="5.10" departSpeed="0.00" departDelay="9.00" arrival="120.00" arrivalLane="c3_2" arrivalPos="480.00" arrivalSpeed="12.58" duration="91.00" routeLength="995.03" waitingTime="0.00" waitingCount="0" stopTime="0.00" timeLoss="12.87" rerouteNo="0" devices="tripinfo_left_110" vType="passenger" speedFactor="0.93" vaporized=""/>
    <tripinfo id="right_138" depart="29.00" departLane="3c_2" departPos="5.10" departSpeed="0.00" departDelay="3.00" arrival="120.00" arrivalLane="c4_1" arrivalPos="480.00" arrivalSpeed="11.60" duration="91.00" routeLength="995.03" waitingTime="0.00" waitingCount="0" stopTime="0.00" timeLoss="19.24" rerouteNo="0" devices="tripinfo_right_138" vType="passenger" speedFactor="1.00" vaporized=""/>
    <tripinfo id="left_177" depart="35.00" departLane="4c_2" departPos="5.10" departSpeed="0.00" departDelay="3.00" arrival="121.00" arrivalLane="c3_2" arrivalPos="480.00" arrivalSpeed="12.97" duration="86.00" routeLength="995.03" waitingTime="0.00" waitingCount="0" stopTime="0.00" timeLoss="16.30" rerouteNo="0" devices="tripinfo_left_177" vType="passenger" speedFactor="1.03" vaporized=""/>