<?xml version="1.0" encoding="UTF-8"?>

<!-- generated on 2024-06-11 12:49:56 by Eclipse SUMO sumo Version 1.20.0
<configuration xmlns:xsi="http://www.w3.org/2001/XMLSchema-instance" xsi:noNamespaceSchemaLocation="http://sumo.dlr.de/xsd/sumoConfiguration.xsd">

    <input>
        <net-file value="config/cross.net.xml"/>
        <route-files value="config/cross.rou.xml"/>
        <additional-files value="config/cross.det.xml"/>
    </input>

    <output>
        <queue-output value="queueinfo.xml"/>
        <tripinfo-output value="tripinfo.xml"/>
    </output>

    <time>
        <begin value="0"/>
    </time>

    <report>
        <verbose value="true"/>
        <no-step-log value="true"/>
    </report>

    <traci_server>
        <remote-port value="62766"/>
    </traci_server>

</configuration>
-->

<tripinfos xmlns:xsi="http://www.w3.org/2001/XMLSchema-instance" xsi:noNamespaceSchemaLocation="http://sumo.dlr.de/xsd/tripinfo_file.xsd">
    <tripinfo id="left_3" depart="0.00" departLane="4c_3" departPos="5.10" departSpeed="0.00" departDelay="0.00" arrival="73.00" arrivalLane="c3_1" arrivalPos="480.00" arrivalSpeed="13.35" duration="73.00" routeLength="995.03" waitingTime="0.00" waitingCount="0" stopTime="0.00" timeLoss="6.83" rerouteNo="0" devices="tripinfo_left_3" vType="passenger" speedFactor="1.08" vaporized=""/>
    <tripinfo id="left_10" depart="1.00" departLane="4c_2" departPos="5.10" departSpeed="0.00" departDelay="0.00" arrival="74.00" arrivalLane="c3_0" arrivalPos="480.00" arrivalSpeed="14.54" duration="73.00" routeLength="995.03" waitingTime="0.00" waitingCount="0" stopTime="0.00" timeLoss="6.52" rerouteNo="0" devices="tripinfo_left_10" vType="passenger" speedFactor="1.09" vaporized=""/>
    <tripinfo id="right_0" depart="0.00" departLane="3c_4" departPos="5.10" departSpeed="0.00" departDelay="0.00" arrival="76.00" arrivalLane="c4_0" arrivalPos="480.00" arrivalSpeed="13.11" duration="76.00" routeLength="995.03" waitingTime="0.00" waitingCount="0" stopTime="0.00" timeLoss="7.89" rerouteNo="0" devices="tripinfo_right_0" vType="passenger" speedFactor="1.06" vaporized=""/>
    <tripinfo id="left_28" depart="4.00" departLane="4c_0" departPos="5.10" departSpeed="0.00" departDelay="0.00" arrival="78.00" arrivalLane="c3_1" arrivalPos="480.00" arrivalSpeed="13.92" duration="74.00" routeLength="995.03" waitingTime="0.00" waitingCount="0" stopTime="0.00" timeLoss="10.14" rerouteNo="0" devices="tripinfo_left_28" vType="passenger" speedFactor="1.13" vaporized=""/>
    <tripinfo id="left_30" depart="8.00" departLane="4c_4" departPos="5.10" departSpeed="0.00" departDelay="4.00" arrival="78.00" arrivalLane="c3_3" arrivalPos="480.00" arrivalSpeed="14.61" duration="70.00" routeLength="995.03" waitingTime="0.00" waitingCount="0" stopTime="0.00" timeLoss="8.40" rerouteNo="0" devices="tripinfo_left_30" vType="passenger" speedFactor="1.18" vaporized=""/>
    <tripinfo id="left_4" depart="0.00" departLane="4c_1" departPos="5.10" departSpeed="0.00" departDelay="0.00" arrival="79.00" arrivalLane="c3_0" arrivalPos="480.00" arrivalSpeed="13.82" duration="79.00" routeLength="995.03" waitingTime="0.00" waitingCount="0" stopTime="0.00" timeLoss="8.64" rerouteNo="0" devices="tripinfo_left_4" vType="passenger" speedFactor="1.03" vaporized=""/>
    <tripinfo id="left_31" depart="6.00" departLane="4c_0" departPos="5.10" departSpeed="0.00" departDelay="2.00" arrival="79.00" arrivalLane="c3_1" arrivalPos="480.00" arrivalSpeed="15.29" duration="73.00" routeLength="995.03" waitingTime="0.00" waitingCount="0" stopTime="0.00" timeLoss="10.91" rerouteNo="0" devices="tripinfo_left_31" vType="passenger" speedFactor="1.15" vaporized=""/>
    <tripinfo id="right_2" depart="0.00" departLane="3c_1" departPos="5.10" departSpeed="0.00" departDelay="0.00" arrival="80.00" arrivalLane="c4_0" arrivalPos="480.00" arrivalSpeed="12.58" duration="80.00" routeLength="995.03" waitingTime="0.00" waitingCount="0" stopTime="0.00" timeLoss="8.84" rerouteNo="0" devices="tripinfo_right_2" vType="passenger" speedFactor="1.01" vaporized=""/>
    <tripinfo id="left_37" depart="8.00" departLane="4c_0" departPos="5.10" departSpeed="0.00" departDelay="3.00" arrival="80.00" arrivalLane="c3_3" arrivalPos="480.00" arrivalSpeed="14.17" duration="72.00" routeLength="995.03" waitingTime="0.00" waitingCount="0" stopTime="0.00" timeLoss="10.60" rerouteNo="0" devices="tripinfo_left_37" vType="passenger" speedFactor="1.18" vaporized=""/>
    <tripinfo id="left_11" depart="3.00" departLane="4c_2" departPos="5.10" departSpeed="0.00" departDelay="2.00" arrival="81.00" arrivalLane="c3_2" arrivalPos="480.00" arrivalSpeed="13.36" duration="78.00" routeLength="995.03" waitingTime="0.00" waitingCount="0" stopTime="0.00" timeLoss="8.06" rerouteNo="0" devices="tripinfo_left_11" vType="passenger" speedFactor="1.03" vaporized=""/>
    <tripinfo id="right_38" depart="7.00" departLane="3c_2" departPos="5.10" departSpeed="0.00" departDelay="1.00" arrival="81.00" arrivalLane="c4_2" arrivalPos="480.00" arrivalSpeed="14.57" duration="74.00" routeLength="995.03" waitingTime="0.00" waitingCount="0" stopTime="0.00" timeLoss="8.86" rerouteNo="0" devices="tripinfo_right_38" vType="passenger" speedFactor="1.10" vaporized=""/>
    <tripinfo id="right_35" depart="5.00" departLane="3c_2" departPos="5.10" departSpeed="0.00" departDelay="0.00" arrival="82.00" arrivalLane="c4_1" arrivalPos="480.00" arrivalSpeed="11.82" duration="77.00" routeLength="995.03" waitingTime="0.00" waitingCount="0" stopTime="0.00" timeLoss="6.65" rerouteNo="0" devices="tripinfo_right_35" vType="passenger" speedFactor="1.02" vaporized=""/>
    <tripinfo id="right_44" depart="9.00" departLane="3c_2" departPos="5.10" departSpeed="0.00" departDelay="2.00" arrival="85.00" arrivalLane="c4_1" arrivalPos="480.00" arrivalSpeed="14.32" duration="76.00" routeLength="995.03" waitingTime="0.00" waitingCount="0" stopTime="0.00" timeLoss="7.34" rerouteNo="0" devices="tripinfo_right_44" vType="passenger" speedFactor="1.04" vaporized=""/>
    <tripinfo id="left_22" depart="3.00" departLane="4c_4" departPos="5.10" departSpeed="0.00" departDelay="0.00" arrival="86.00" arrivalLane="c3_1" arrivalPos="480.00" arrivalSpeed="11.78" duration="83.00" routeLength="995.03" waitingTime="0.00" waitingCount="0" stopTime="0.00" timeLoss="9.04" rerouteNo="0" devices="tripinfo_left_22" vType="passenger" speedFactor="0.97" vaporized=""/>
    <tripinfo id="right_1" depart="0.00" departLane="3c_3" departPos="5.10" departSpeed="0.00" departDelay="0.00" arrival="87.00" arrivalLane="c4_0" arrivalPos="480.00" arrivalSpeed="12.24" duration="87.00" routeLength="995.03" waitingTime="0.00" waitingCount="0" stopTime="0.00" timeLoss="10.00" rerouteNo="0" devices="tripinfo_right_1" vType="passenger" speedFactor="0.94" vaporized=""/>
    <tripinfo id="right_45" depart="11.00" departLane="3c_2" departPos="5.10" departSpeed="0.00" departDelay="4.00" arrival="87.00" arrivalLane="c4_2" arrivalPos="480.00" arrivalSpeed="14.92" duration="76.00" routeLength="995.03" waitingTime="0.00" waitingCount="0" stopTime="0.00" timeLoss="9.65" rerouteNo="0" devices="tripinfo_right_45" vType="passenger" speedFactor="1.09" vaporized=""/>
    <tripinfo id="right_20" depart="4.00" departLane="3c_3" departPos="5.10" departSpeed="0.00" departDelay="1.00" arrival="88.00" arrivalLane="c4_3" arrivalPos="480.00" arrivalSpeed="12.24" duration="84.00" routeLength="995.03" waitingTime="0.00" waitingCount="0" stopTime="0.00" timeLoss="13.39" rerouteNo="0" devices="tripinfo_right_20" vType="passenger" speedFactor="1.02" vaporized=""/>
    <tripinfo id="left_32" depart="7.00" departLane="4c_1" departPos="5.10" departSpeed="0.00" departDelay="3.00" arrival="88.00" arrivalLane="c3_0" arrivalPos="480.00" arrivalSpeed="12.30" duration="81.00" routeLength="995.03" waitingTime="0.00" waitingCount="0" stopTime="0.00" timeLoss="9.17" rerouteNo="0" devices="tripinfo_left_32" vType="passenger" speedFactor="1.01" vaporized=""/>
    <tripinfo id="right_8" depart="2.00" departLane="3c_1" departPos="5.10" departSpeed="0.00" departDelay="1.00" arrival="89.00" arrivalLane="c4_0" arrivalPos="480.00" arrivalSpeed="12.08" duration="87.00" routeLength="995.03" waitingTime="0.00" waitingCount="0" stopTime="0.00" timeLoss="10.04" rerouteNo="0" devices="tripinfo_right_8" vType="passenger" speedFactor="0.94" vaporized=""/>
    <tripinfo id="right_53" depart="13.00" departLane="3c_1" departPos="5.10" departSpeed="0.00" departDelay="4.00" arrival="89.00" arrivalLane="c4_4" arrivalPos="480.00" arrivalSpeed="13.80" duration="76.00" routeLength="995.03" waitingTime="0.00" waitingCount="0" stopTime="0.00" timeLoss="10.05" rerouteNo="0" devices="tripinfo_right_53" vType="passenger" speedFactor="1.10" vaporized=""/>
    <tripinfo id="right_51" depart="11.00" departLane="3c_1" departPos="5.10" departSpeed="0.00" departDelay="2.00" arrival="90.00" arrivalLane="c4_2" arrivalPos="480.00" arrivalSpeed="15.23" duration="79.00" routeLength="995.03" waitingTime="0.00" waitingCount="0" stopTime="0.00" timeLoss="17.42" rerouteNo="0" devices="tripinfo_right_51" vType="passenger" speedFactor="1.17" vaporized=""/>
    <tripinfo id="left_17" depart="5.00" departLane="4c_2" departPos="5.10" departSpeed="0.00" departDelay="3.00" arrival="91.00" arrivalLane="c3_0" arrivalPos="480.00" arrivalSpeed="11.82" duration="86.00" routeLength="995.03" waitingTime="0.00" waitingCount="0" stopTime="0.00" timeLoss="9.46" rerouteNo="0" devices="tripinfo_left_17" vType="passenger" speedFactor="0.94" vaporized=""/>
    <tripinfo id="left_29" depart="5.00" departLane="4c_4" departPos="5.10" departSpeed="0.00" departDelay="1.00" arrival="91.00" arrivalLane="c3_2" arrivalPos="480.00" arrivalSpeed="11.24" duration="86.00" routeLength="995.03" waitingTime="0.00" waitingCount="0" stopTime="0.00" timeLoss="8.83" rerouteNo="0" devices="tripinfo_left_29" vType="passenger" speedFactor="0.93" vaporized=""/>
    <tripinfo id="left_41" depart="7.00" departLane="4c_2" departPos="5.10" departSpeed="0.00" departDelay="1.00" arrival="93.00" arrivalLane="c3_3" arrivalPos="480.00" arrivalSpeed="12.96" duration="86.00" routeLength="995.03" waitingTime="0.00" waitingCount="0" stopTime="0.00" timeLoss="10.59" rerouteNo="0" devices="tripinfo_left_41" vType="passenger" speedFactor="0.96" vaporized=""/>
    <tripinfo id="right_52" depart="13.00" departLane="3c_3" departPos="5.10" departSpeed="0.00" departDelay="4.00" arrival="93.00" arrivalLane="c4_2" arrivalPos="480.00" arrivalSpeed="13.09" duration="80.00" routeLength="995.03" waitingTime="0.00" waitingCount="0" stopTime="0.00" timeLoss="9.43" rerouteNo="0" devices="tripinfo_right_52" vType="passenger" speedFactor="1.02" vaporized=""/>
    <tripinfo id="left_36" depart="10.00" departLane="4c_4" departPos="5.10" departSpeed="0.00" departDelay="5.00" arrival="94.00" arrivalLane="c3_2" arrivalPos="480.00" arrivalSpeed="11.91" duration="84.00" routeLength="995.03" waitingTime="0.00" waitingCount="0" stopTime="0.00" timeLoss="10.20" rerouteNo="0" devices="tripinfo_left_36" vType="passenger" speedFactor="0.97" vaporized=""/>
    <tripinfo id="left_18" depart="5.00" departLane="4c_1" departPos="5.10" departSpeed="0.00" departDelay="3.00" arrival="95.00" arrivalLane="c3_0" arrivalPos="480.00" arrivalSpeed="11.72" duration="90.00" routeLength="995.03" waitingTime="0.00" waitingCount="0" stopTime="0.00" timeLoss="12.97" rerouteNo="0" devices="tripinfo_left_18" vType="passenger" speedFactor="0.94" vaporized=""/>
    <tripinfo id="right_70" depart="16.00" departLane="3c_2" departPos="5.10" departSpeed="0.00" departDelay="2.00" arrival="95.00" arrivalLane="c4_2" arrivalPos="480.00" arrivalSpeed="13.33" duration="79.00" routeLength="995.03" waitingTime="0.00" waitingCount="0" stopTime="0.00" timeLoss="8.96" rerouteNo="0" devices="tripinfo_right_70" vType="passenger" speedFactor="1.02" vaporized=""/>
    <tripinfo id="left_40" depart="6.00" departLane="4c_3" departPos="5.10" departSpeed="0.00" departDelay="0.00" arrival="96.00" arrivalLane="c3_2" arrivalPos="480.00" arrivalSpeed="13.12" duration="90.00" routeLength="995.03" waitingTime="0.00" waitingCount="0" stopTime="0.00" timeLoss="19.86" rerouteNo="0" devices="tripinfo_left_40" vType="passenger" speedFactor="1.03" vaporized=""/>
    <tripinfo id="left_68" depart="14.00" departLane="4c_4" departPos="5.10" departSpeed="0.00" departDelay="1.00" arrival="96.00" arrivalLane="c3_4" arrivalPos="480.00" arrivalSpeed="12.38" duration="82.00" routeLength="995.03" waitingTime="0.00" waitingCount="0" stopTime="0.00" timeLoss="12.34" rerouteNo="0" devices="tripinfo_left_68" vType="passenger" speedFactor="1.04" vaporized=""/>
    <tripinfo id="right_9" depart="2.00" departLane="3c_3" departPos="5.10" departSpeed="0.00" departDelay="1.00" arrival="97.00" arrivalLane="c4_1" arrivalPos="480.00" arrivalSpeed="10.10" duration="95.00" routeLength="995.03" waitingTime="0.00" waitingCount="0" stopTime="0.00" timeLoss="10.93" rerouteNo="0" devices="tripinfo_right_9" vType="passenger" speedFactor="0.86" vaporized=""/>
    <tripinfo id="right_16" depart="4.00" departLane="3c_1" departPos="5.10" departSpeed="0.00" departDelay="2.00" arrival="97.00" arrivalLane="c4_0" arrivalPos="480.00" arrivalSpeed="10.48" duration="93.00" routeLength="995.03" waitingTime="0.00" waitingCount="0" stopTime="0.00" timeLoss="11.09" rerouteNo="0" devices="tripinfo_right_16" vType="passenger" speedFactor="0.88" vaporized=""/>
    <tripinfo id="right_21" depart="6.00" departLane="3c_4" departPos="5.10" departSpeed="0.00" departDelay="3.00" arrival="97.00" arrivalLane="c4_4" arrivalPos="480.00" arrivalSpeed="11.87" duration="91.00" routeLength="995.03" waitingTime="0.00" waitingCount="0" stopTime="0.00" timeLoss="19.80" rerouteNo="0" devices="tripinfo_right_21" vType="passenger" speedFactor="1.01" vaporized=""/>
    <tripinfo id="right_26" depart="8.00" departLane="3c_4" departPos="5.10" departSpeed="0.00" departDelay="4.00" arrival="97.00" arrivalLane="c4_3" arrivalPos="480.00" arrivalSpeed="10.92" duration="89.00" routeLength="995.03" waitingTime="0.00" waitingCount="0" stopTime="0.00" timeLoss="10.63" rerouteNo="0" devices="tripinfo_right_26" vType="passenger" speedFactor="0.92" vaporized=""/>
    <tripinfo id="left_71" depart="14.00" departLane="4c_1" departPos="5.10" departSpeed="0.00" departDelay="0.00" arrival="97.00" arrivalLane="c3_1" arrivalPos="480.00" arrivalSpeed="12.46" duration="83.00" routeLength="995.03" waitingTime="0.00" waitingCount="0" stopTime="0.00" timeLoss="8.54" rerouteNo="0" devices="tripinfo_left_71" vType="passenger" speedFactor="0.97" vaporized=""/>
    <tripinfo id="left_76" depart="16.00" departLane="4c_1" departPos="5.10" departSpeed="0.00" departDelay="1.00" arrival="98.00" arrivalLane="c3_3" arrivalPos="480.00" arrivalSpeed="11.94" duration="82.00" routeLength="995.03" waitingTime="0.00" waitingCount="0" stopTime="0.00" timeLoss="12.10" rerouteNo="0" devices="tripinfo_left_76" vType="passenger" speedFactor="1.03" vaporized=""/>
    <tripinfo id="rightTurn1_106" depart="21.00" departLane="2c_2" departPos="5.10" departSpeed="0.00" departDelay="0.00" arrival="98.00" arrivalLane="c4_2" arrivalPos="480.00" arrivalSpeed="12.57" duration="77.00" routeLength="963.93" waitingTime="0.00" waitingCount="0" stopTime="0.00" timeLoss="7.88" rerouteNo="0" devices="tripinfo_rightTurn1_106" vType="passenger" speedFactor="1.01" vaporized=""/>
    <tripinfo id="right_39" depart="9.00" departLane="3c_1" departPos="5.10" departSpeed="0.00" departDelay="3.00" arrival="99.00" arrivalLane="c4_0" arrivalPos="480.00" arrivalSpeed="11.45" duration="90.00" routeLength="995.03" waitingTime="0.00" waitingCount="0" stopTime="0.00" timeLoss="10.30" rerouteNo="0" devices="tripinfo_right_39" vType="passenger" speedFactor="0.90" vaporized=""/>
    <tripinfo id="left_5" depart="2.00" departLane="4c_3" departPos="5.10" departSpeed="0.00" departDelay="2.00" arrival="100.00" arrivalLane="c3_0" arrivalPos="480.00" arrivalSpeed="10.46" duration="98.00" routeLength="995.03" waitingTime="0.00" waitingCount="0" stopTime="0.00" timeLoss="11.27" rerouteNo="0" devices="tripinfo_left_5" vType="passenger" speedFactor="0.83" vaporized=""/>
    <tripinfo id="left_59" depart="13.00" departLane="4c_0" departPos="5.10" departSpeed="0.00" departDelay="3.00" arrival="100.00" arrivalLane="c3_1" arrivalPos="480.00" arrivalSpeed="12.33" duration="87.00" routeLength="995.03" waitingTime="0.00" waitingCount="0" stopTime="0.00" timeLoss="12.75" rerouteNo="0" devices="tripinfo_left_59" vType="passenger" speedFactor="0.97" vaporized=""/>
    <tripinfo id="leftTurn1_54" depart="12.00" departLane="4c_4" departPos="5.10" departSpeed="0.00" departDelay="3.00" arrival="101.00" arrivalLane="c2_1" arrivalPos="480.00" arrivalSpeed="12.19" duration="89.00" routeLength="989.74" waitingTime="5.00" waitingCount="1" stopTime="0.00" timeLoss="17.41" rerouteNo="0" devices="tripinfo_leftTurn1_54" vType="passenger" speedFactor="1.00" vaporized=""/>
    <tripinfo id="left_66" depart="13.00" departLane="4c_2" departPos="5.10" departSpeed="0.00" departDelay="0.00" arrival="102.00" arrivalLane="c3_2" arrivalPos="480.00" arrivalSpeed="12.17" duration="89.00" routeLength="995.03" waitingTime="0.00" waitingCount="0" stopTime="0.00" timeLoss="9.29" rerouteNo="0" devices="tripinfo_left_66" vType="passenger" speedFactor="0.91" vaporized=""/>
    <tripinfo id="right_98" depart="20.00" departLane="3c_0" departPos="5.10" departSpeed="0.00" departDelay="0.00" arrival="102.00" arrivalLane="c4_2" arrivalPos="480.00" arrivalSpeed="14.71" duration="82.00" routeLength="995.03" waitingTime="5.00" waitingCount="1" stopTime="0.00" timeLoss="17.79" rerouteNo="0" devices="tripinfo_right_98" vType="passenger" speedFactor="1.12" vaporized=""/>
    <tripinfo id="left_48" depart="10.00" departLane="4c_1" departPos="5.10" departSpeed="0.00" departDelay="2.00" arrival="103.00" arrivalLane="c3_0" arrivalPos="480.00" arrivalSpeed="11.26" duration="93.00" routeLength="995.03" waitingTime="0.00" waitingCount="0" stopTime="0.00" timeLoss="10.43" rerouteNo="0" devices="tripinfo_left_48" vType="passenger" speedFactor="0.88" vaporized=""/>
    <tripinfo id="left_60" depart="15.00" departLane="4c_0" departPos="5.10" departSpeed="0.00" departDelay="5.00" arrival="103.00" arrivalLane="c3_2" arrivalPos="480.00" arrivalSpeed="14.76" duration="88.00" routeLength="995.03" waitingTime="3.00" waitingCount="1" stopTime="0.00" timeLoss="21.79" rerouteNo="0" devices="tripinfo_left_60" vType="passenger" speedFactor="1.08" vaporized=""/>
    <tripinfo id="left_80" depart="16.00" departLane="4c_2" departPos="5.10" departSpeed="0.00" departDelay="0.00" arrival="104.00" arrivalLane="c3_2" arrivalPos="480.00" arrivalSpeed="13.38" duration="88.00" routeLength="995.03" waitingTime="4.00" waitingCount="1" stopTime="0.00" timeLoss="18.64" rerouteNo="0" devices="tripinfo_left_80" vType="passenger" speedFactor="1.03" vaporized=""/>
    <tripinfo id="left_100" depart="21.00" departLane="4c_1" departPos="5.10" departSpeed="0.00" departDelay="1.00" arrival="104.00" arrivalLane="c3_1" arrivalPos="480.00" arrivalSpeed="13.18" duration="83.00" routeLength="995.03" waitingTime="1.00" waitingCount="1" stopTime="0.00" timeLoss="15.19" rerouteNo="0" devices="tripinfo_left_100" vType="passenger" speedFactor="1.06" vaporized=""/>
    <tripinfo id="right_25" depart="6.00" departLane="3c_3" departPos="5.10" departSpeed="0.00" departDelay="2.00" arrival="105.00" arrivalLane="c4_1" arrivalPos="480.00" arrivalSpeed="11.57" duration="99.00" routeLength="995.03" waitingTime="0.00" waitingCount="0" stopTime="0.00" timeLoss="15.97" rerouteNo="0" devices="tripinfo_right_25" vType="passenger" speedFactor="0.87" vaporized=""/>
    <tripinfo id="left_89" depart="19.00" departLane="4c_4" departPos="5.10" departSpeed="0.00" departDelay="0.00" arrival="105.00" arrivalLane="c3_4" arrivalPos="480.00" arrivalSpeed="13.98" duration="86.00" routeLength="995.03" waitingTime="1.00" waitingCount="1" stopTime="0.00" timeLoss="14.97" rerouteNo="0" devices="tripinfo_left_89" vType="passenger" speedFactor="1.02" vaporized=""/>
    <tripinfo id="right_24" depart="6.00" departLane="3c_1" departPos="5.10" departSpeed="0.00" departDelay="2.00" arrival="106.00" arrivalLane="c4_0" arrivalPos="480.00" arrivalSpeed="10.73" duration="100.00" routeLength="995.03" waitingTime="1.00" waitingCount="1" stopTime="0.00" timeLoss="12.72" rerouteNo="0" devices="tripinfo_right_24" vType="passenger" speedFactor="0.83" vaporized=""/>
    <tripinfo id="left_58" depart="10.00" departLane="4c_3" departPos="5.10" departSpeed="0.00" departDelay="0.00" arrival="106.00" arrivalLane="c3_4" arrivalPos="480.00" arrivalSpeed="12.32" duration="96.00" routeLength="995.03" waitingTime="0.00" waitingCount="0" stopTime="0.00" timeLoss="25.99" rerouteNo="0" devices="tripinfo_left_58" vType="passenger" speedFactor="1.02" vaporized=""/>
    <tripinfo id="left_84" depart="18.00" departLane="4c_1" departPos="5.10" departSpeed="0.00" departDelay="1.00" arrival="106.00" arrivalLane="c3_2" arrivalPos="480.00" arrivalSpeed="14.75" duration="88.00" routeLength="995.03" waitingTime="1.00" waitingCount="1" stopTime="0.00" timeLoss="24.92" rerouteNo="0" devices="tripinfo_left_84" vType="passenger" speedFactor="1.15" vaporized=""/>
    <tripinfo id="leftTurn2_15" depart="2.00" departLane="3c_4" departPos="5.10" departSpeed="0.00" departDelay="1.00" arrival="107.00" arrivalLane="c1_1" arrivalPos="480.00" arrivalSpeed="11.73" duration="105.00" routeLength="989.74" waitingTime="11.00" waitingCount="1" stopTime="0.00" timeLoss="27.83" rerouteNo="0" devices="tripinfo_leftTurn2_15" vType="passenger" speedFactor="0.93" vaporized=""/>
    <tripinfo id="leftTurn2_7" depart="0.00" departLane="3c_2" departPos="5.10" departSpeed="0.00" departDelay="0.00" arrival="108.00" arrivalLane="c1_0" arrivalPos="480.00" arrivalSpeed="10.74" duration="108.00" routeLength="989.74" waitingTime="11.00" waitingCount="1" stopTime="0.00" timeLoss="27.14" rerouteNo="0" devices="tripinfo_leftTurn2_7" vType="passenger" speedFactor="0.89" vaporized=""/>
    <tripinfo id="right_34" depart="8.00" departLane="3c_3" departPos="5.10" departSpeed="0.00" departDelay="3.00" arrival="108.00" arrivalLane="c4_2" arrivalPos="480.00" arrivalSpeed="11.45" duration="100.00" routeLength="995.03" waitingTime="4.00" waitingCount="2" stopTime="0.00" timeLoss="27.73" rerouteNo="0" devices="tripinfo_right_34" vType="passenger" speedFactor="0.99" vaporized=""/>
    <tripinfo id="left_86" depart="25.00" departLane="4c_0" departPos="5.10" departSpeed="0.00" departDelay="7.00" arrival="108.00" arrivalLane="c3_0" arrivalPos="480.00" arrivalSpeed="13.80" duration="83.00" routeLength="995.03" waitingTime="0.00" waitingCount="0" stopTime="0.00" timeLoss="11.41" rerouteNo="0" devices="tripinfo_left_86" vType="passenger" speedFactor="1.00" vaporized=""/>
    <tripinfo id="left_99" depart="20.00" departLane="4c_2" departPos="5.10" departSpeed="0.00" departDelay="0.00" arrival="108.00" arrivalLane="c3_2" arrivalPos="480.00" arrivalSpeed="13.05" duration="88.00" routeLength="995.03" waitingTime="2.00" waitingCount="2" stopTime="0.00" timeLoss="22.21" rerouteNo="0" devices="tripinfo_left_99" vType="passenger" speedFactor="1.10" vaporized=""/>
    <tripinfo id="right_27" depart="11.00" departLane="3c_4" departPos="5.10" departSpeed="0.00" departDelay="7.00" arrival="110.00" arrivalLane="c4_3" arrivalPos="480.00" arrivalSpeed="10.73" duration="99.00" routeLength="995.03" waitingTime="3.00" waitingCount="1" stopTime="0.00" timeLoss="22.73" rerouteNo="0" devices="tripinfo_right_27" vType="passenger" speedFactor="0.95" vaporized=""/>
    <tripinfo id="right_46" depart="13.00" departLane="3c_4" departPos="5.10" departSpeed="0.00" departDelay="5.00" arrival="110.00" arrivalLane="c4_4" arrivalPos="480.00" arrivalSpeed="13.83" duration="97.00" routeLength="995.03" waitingTime="1.00" waitingCount="1" stopTime="0.00" timeLoss="24.51" rerouteNo="0" devices="tripinfo_right_46" vType="passenger" speedFactor="1.00" vaporized=""/>
    <tripinfo id="right_85" depart="22.00" departLane="3c_1" departPos="5.10" departSpeed="0.00" departDelay="4.00" arrival="110.00" arrivalLane="c4_1" arrivalPos="480.00" arrivalSpeed="12.65" duration="88.00" routeLength="995.03" waitingTime="0.00" waitingCount="0" stopTime="0.00" timeLoss="14.40" rerouteNo="0" devices="tripinfo_right_85" vType="passenger" speedFactor="0.98" vaporized=""/>
    <tripinfo id="left_133" depart="29.00" departLane="4c_1" departPos="5.10" departSpeed="0.00" departDelay="0.00" arrival="110.00" arrivalLane="c3_2" arrivalPos="480.00" arrivalSpeed="11.99" duration="81.00" routeLength="995.03" waitingTime="0.00" waitingCount="0" stopTime="0.00" timeLoss="11.52" rerouteNo="0" devices="tripinfo_left_133" vType="passenger" speedFactor="1.04" vaporized=""/>
    <tripinfo id="right_62" depart="17.00" departLane="3c_4" departPos="5.10" departSpeed="0.00" departDelay="5.00" arrival="111.00" arrivalLane="c4_3" arrivalPos="480.00" arrivalSpeed="14.09" duration="94.00" routeLength="995.03" waitingTime="0.00" waitingCount="0" stopTime="0.00" timeLoss="23.21" rerouteNo="0" devices="tripinfo_right_62" vType="passenger" speedFactor="1.02" vaporized=""/>
    <tripinfo id="left_63" depart="12.00" departLane="4c_3" departPos="5.10" departSpeed="0.00" departDelay="0.00" arrival="111.00" arrivalLane="c3_3" arrivalPos="480.00" arrivalSpeed="12.26" duration="99.00" routeLength="995.03" waitingTime="0.00" waitingCount="0" stopTime="0.00" timeLoss="25.62" rerouteNo="0" devices="tripinfo_left_63" vType="passenger" speedFactor="0.99" vaporized=""/>
    <tripinfo id="left_64" depart="15.00" departLane="4c_3" departPos="5.10" departSpeed="0.00" departDelay="3.00" arrival="111.00" arrivalLane="c3_1" arrivalPos="480.00" arrivalSpeed="11.75" duration="96.00" routeLength="995.03" waitingTime="1.00" waitingCount="1" stopTime="0.00" timeLoss="18.75" rerouteNo="0" devices="tripinfo_left_64" vType="passenger" speedFactor="0.94" vaporized=""/>
    <tripinfo id="left_108" depart="26.00" departLane="4c_4" departPos="5.10" departSpeed="0.00" departDelay="4.00" arrival="111.00" arrivalLane="c3_4" arrivalPos="480.00" arrivalSpeed="14.51" duration="85.00" routeLength="995.03" waitingTime="0.00" waitingCount="0" stopTime="0.00" timeLoss="17.08" rerouteNo="0" devices="tripinfo_left_108" vType="passenger" speedFactor="1.06" vaporized=""/>
    <tripinfo id="right_47" depart="11.00" departLane="3c_3" departPos="5.10" departSpeed="0.00" departDelay="3.00" arrival="112.00" arrivalLane="c4_0" arrivalPos="480.00" arrivalSpeed="11.37" duration="101.00" routeLength="995.03" waitingTime="1.00" waitingCount="1" stopTime="0.00" timeLoss="20.90" rerouteNo="0" devices="tripinfo_right_47" vType="passenger" speedFactor="0.90" vaporized=""/>
    <tripinfo id="right_113" depart="25.00" departLane="3c_0" departPos="5.10" departSpeed="0.00" departDelay="0.00" arrival="112.00" arrivalLane="c4_2" arrivalPos="480.00" arrivalSpeed="12.22" duration="87.00" routeLength="995.03" waitingTime="0.00" waitingCount="0" stopTime="0.00" timeLoss="15.19" rerouteNo="0" devices="tripinfo_right_113" vType="passenger" speedFactor="1.01" vaporized=""/>
    <tripinfo id="left_134" depart="34.00" departLane="4c_0" departPos="5.10" departSpeed="0.00" departDelay="5.00" arrival="112.00" arrivalLane="c3_2" arrivalPos="480.00" arrivalSpeed="15.29" duration="78.00" routeLength="995.03" waitingTime="0.00" waitingCount="0" stopTime="0.00" timeLoss="17.51" rerouteNo="0" devices="tripinfo_left_134" vType="passenger" speedFactor="1.23" vaporized=""/>
    <tripinfo id="left_81" depart="19.00" departLane="4c_3" departPos="5.10" departSpeed="0.00" departDelay="3.00" arrival="113.00" arrivalLane="c3_3" arrivalPos="480.00" arrivalSpeed="11.71" duration="94.00" routeLength="995.03" waitingTime="0.00" waitingCount="0" stopTime="0.00" timeLoss="21.42" rerouteNo="0" devices="tripinfo_left_81" vType="passenger" speedFactor="1.00" vaporized=""/>
    <tripinfo id="right_126" depart="28.00" departLane="3c_1" departPos="5.10" departSpeed="0.00" departDelay="0.00" arrival="113.00" arrivalLane="c4_3" arrivalPos="480.00" arrivalSpeed="13.43" duration="85.00" routeLength="995.03" waitingTime="0.00" waitingCount="0" stopTime="0.00" timeLoss="15.17" rerouteNo="0" devices="tripinfo_right_126" vType="passenger" speedFactor="1.03" vaporized=""/>
    <tripinfo id="right_56" depart="15.00" departLane="3c_1" departPos="5.10" departSpeed="0.00" departDelay="5.00" arrival="114.00" arrivalLane="c4_1" arrivalPos="480.00" arrivalSpeed="11.19" duration="99.00" routeLength="995.03" waitingTime="3.00" waitingCount="1" stopTime="0.00" timeLoss="18.50" rerouteNo="0" devices="tripinfo_right_56" vType="passenger" speedFactor="0.90" vaporized=""/>
    <tripinfo id="left_67" depart="17.00" departLane="4c_3" departPos="5.10" departSpeed="0.00" departDelay="4.00" arrival="114.00" arrivalLane="c3_0" arrivalPos="480.00" arrivalSpeed="10.50" duration="97.00" routeLength="995.03" waitingTime="0.00" waitingCount="0" stopTime="0.00" timeLoss="18.60" rerouteNo="0" devices="tripinfo_left_67" vType="passenger" speedFactor="0.91" vaporized=""/>
    <tripinfo id="left_101" depart="23.00" departLane="4c_2" departPos="5.10" departSpeed="0.00" departDelay="3.00" arrival="114.00" arrivalLane="c3_1" arrivalPos="480.00" arrivalSpeed="11.66" duration="91.00" routeLength="995.03" waitingTime="0.00" waitingCount="0" stopTime="0.00" timeLoss="15.49" rerouteNo="0" devices="tripinfo_left_101" vType="passenger" speedFactor="0.96" vaporized=""/>
    <tripinfo id="left_121" depart="30.00" departLane="4c_0" departPos="5.10" departSpeed="0.00" departDelay="4.00" arrival="114.00" arrivalLane="c3_2" arrivalPos="480.00" arrivalSpeed="13.21" duration="84.00" routeLength="995.03" waitingTime="0.00" waitingCount="0" stopTime="0.00" timeLoss="18.29" rerouteNo="0" devices="tripinfo_left_121" vType="passenger" speedFactor="1.10" vaporized=""/>