<?xml version="1.0" encoding="UTF-8"?>

<!-- generated on 2024-05-22 00:27:12 by Eclipse SUMO GUI Version 1.20.0
<configuration xmlns:xsi="http://www.w3.org/2001/XMLSchema-instance" xsi:noNamespaceSchemaLocation="http://sumo.dlr.de/xsd/sumoConfiguration.xsd">

    <input>
        <net-file value="config/cross.net.xml"/>
        <route-files value="config/cross.rou.xml"/>
        <additional-files value="config/cross.det.xml"/>
    </input>

    <time>
        <begin value="0"/>
    </time>

    <report>
        <verbose value="true"/>
        <no-step-log value="true"/>
    </report>

    <traci_server>
        <remote-port value="54801"/>
    </traci_server>

</configuration>
-->

<detector xmlns:xsi="http://www.w3.org/2001/XMLSchema-instance" xsi:noNamespaceSchemaLocation="http://sumo.dlr.de/xsd/det_e1_file.xsd">
    <interval begin="0.00" end="168.00" id="0" nVehContrib="45" flow="964.29" occupancy="27.59" speed="9.07" harmonicMeanSpeed="5.18" length="5.56" nVehEntered="45"/>
    <interval begin="0.00" end="168.00" id="1" nVehContrib="46" flow="985.71" occupancy="24.97" speed="10.77" harmonicMeanSpeed="5.66" length="5.22" nVehEntered="46"/>
    <interval begin="0.00" end="168.00" id="2" nVehContrib="42" flow="900.00" occupancy="30.58" speed="10.66" harmonicMeanSpeed="4.10" length="5.05" nVehEntered="42"/>
    <interval begin="0.00" end="168.00" id="3" nVehContrib="34" flow="728.57" occupancy="34.29" speed="10.27" harmonicMeanSpeed="3.15" length="5.15" nVehEntered="37"/>
    <interval begin="0.00" end="168.00" id="4" nVehContrib="53" flow="1135.71" occupancy="21.01" speed="10.31" harmonicMeanSpeed="8.86" length="5.38" nVehEntered="54"/>
</detector>
