<?xml version="1.0" encoding="UTF-8"?>

<!-- generated on 2024-06-11 21:24:07 by Eclipse SUMO sumo Version 1.20.0
<configuration xmlns:xsi="http://www.w3.org/2001/XMLSchema-instance" xsi:noNamespaceSchemaLocation="http://sumo.dlr.de/xsd/sumoConfiguration.xsd">

    <input>
        <net-file value="config/cross.net.xml"/>
        <route-files value="config/cross.rou.xml"/>
        <additional-files value="config/cross.det.xml"/>
    </input>

    <output>
        <queue-output value="queueinfo.xml"/>
        <tripinfo-output value="tripinfo.xml"/>
    </output>

    <time>
        <begin value="0"/>
    </time>

    <report>
        <verbose value="true"/>
        <no-step-log value="true"/>
    </report>

    <traci_server>
        <remote-port value="49568"/>
    </traci_server>

</configuration>
-->

<detector xmlns:xsi="http://www.w3.org/2001/XMLSchema-instance" xsi:noNamespaceSchemaLocation="http://sumo.dlr.de/xsd/det_e1_file.xsd">
    <interval begin="0.00" end="990.00" id="0" nVehContrib="137" flow="498.18" occupancy="10.38" speed="10.20" harmonicMeanSpeed="6.96" length="5.27" nVehEntered="138"/>
    <interval begin="0.00" end="990.00" id="1" nVehContrib="129" flow="469.09" occupancy="27.74" speed="9.47" harmonicMeanSpeed="2.90" length="5.40" nVehEntered="130"/>
    <interval begin="0.00" end="990.00" id="2" nVehContrib="119" flow="432.73" occupancy="30.65" speed="8.67" harmonicMeanSpeed="2.42" length="5.48" nVehEntered="120"/>
    <interval begin="0.00" end="990.00" id="3" nVehContrib="128" flow="465.45" occupancy="33.43" speed="8.50" harmonicMeanSpeed="2.83" length="5.13" nVehEntered="136"/>
    <interval begin="0.00" end="990.00" id="4" nVehContrib="134" flow="487.27" occupancy="7.67" speed="11.37" harmonicMeanSpeed="9.59" length="5.28" nVehEntered="135"/>
</detector>
